Title: ** sch_path: /home/tare/desktop/analog design/lab2_part2.sch
Date: Thu Feb  1 15:37:51  2024
Plotname: Transient Analysis
Flags: real
No. Variables: 2
No. Points: 52529
Variables:
	0	time	time
	1	v(vout)	voltage
Values:
 0	2.561673110920391e-05
	1.035156249999928e+00

 1	2.564173110920391e-05
	1.035156249999928e+00

 2	2.566673110920391e-05
	1.035156249999928e+00

 3	2.569173110920391e-05
	1.035156249999928e+00

 4	2.571673110920391e-05
	1.035156249999928e+00

 5	2.574173110920391e-05
	1.035156249999928e+00

 6	2.576673110920391e-05
	1.035156249999928e+00

 7	2.579173110920391e-05
	1.035156249999928e+00

 8	2.581673110920391e-05
	1.035156249999928e+00

 9	2.584173110920391e-05
	1.035156249999928e+00

 10	2.586673110920391e-05
	1.035156249999928e+00

 11	2.589173110920392e-05
	1.035156249999928e+00

 12	2.591673110920392e-05
	1.035156249999928e+00

 13	2.594173110920392e-05
	1.035156249999928e+00

 14	2.596673110920392e-05
	1.035156249999928e+00

 15	2.599173110920392e-05
	1.035156249999928e+00

 16	2.600000000000000e-05
	1.035156249999928e+00

 17	2.600010000000000e-05
	1.035156249999928e+00

 18	2.600027500000000e-05
	1.035156249999928e+00

 19	2.600032343750000e-05
	1.035156249999928e+00

 20	2.600040820312500e-05
	1.035156249999928e+00

 21	2.600041587315014e-05
	1.035156249999927e+00

 22	2.600043121320042e-05
	1.035156249999928e+00

 23	2.600046189330098e-05
	1.035156249999928e+00

 24	2.600046540964299e-05
	1.035156249999927e+00

 25	2.600047244232702e-05
	1.035156249999928e+00

 26	2.600048650769507e-05
	1.035156249999928e+00

 27	2.600048828535870e-05
	1.035156249999927e+00

 28	2.600049184068598e-05
	1.035156249999928e+00

 29	2.600049895134053e-05
	1.035156249999928e+00

 30	2.600049987873759e-05
	1.035156249999927e+00

 31	2.600050016377135e-05
	1.027343749999943e+00

 32	2.600050020297738e-05
	1.025390624999947e+00

 33	2.600050021610663e-05
	1.023437499999951e+00

 34	2.600050023331098e-05
	1.023437499999951e+00

 35	2.600050025714106e-05
	1.021484374999955e+00

 36	2.600050026691608e-05
	1.021484374999955e+00

 37	2.600050027591642e-05
	1.021484374999955e+00

 38	2.600050028033114e-05
	1.021484374999955e+00

 39	2.600050028739035e-05
	1.021484374999955e+00

 40	2.600050028954891e-05
	1.021484374999955e+00

 41	2.600050029312773e-05
	1.021484374999955e+00

 42	2.600050029725777e-05
	1.019531249999959e+00

 43	2.600050030551784e-05
	1.019531249999959e+00

 44	2.600050032203799e-05
	1.019531249999959e+00

 45	2.600050032636382e-05
	1.019531249999959e+00

 46	2.600050033311812e-05
	1.019531249999959e+00

 47	2.600050034128293e-05
	1.017578124999963e+00

 48	2.600050035761255e-05
	1.017578124999963e+00

 49	2.600050036313294e-05
	1.017578124999963e+00

 50	2.600050037162962e-05
	1.017578124999963e+00

 51	2.600050037432394e-05
	1.017578124999963e+00

 52	2.600050037873768e-05
	1.017578124999963e+00

 53	2.600050038387850e-05
	1.015624999999967e+00

 54	2.600050039416012e-05
	1.015624999999967e+00

 55	2.600050041472337e-05
	1.015624999999967e+00

 56	2.600050044373347e-05
	1.013671874999971e+00

 57	2.600050045321697e-05
	1.013671874999970e+00

 58	2.600050045965708e-05
	1.013671874999970e+00

 59	2.600050046585619e-05
	1.013671874999970e+00

 60	2.600050046874264e-05
	1.013671874999970e+00

 61	2.600050047349548e-05
	1.013671874999970e+00

 62	2.600050047900874e-05
	1.011718749999974e+00

 63	2.600050049003528e-05
	1.011718749999974e+00

 64	2.600050050732149e-05
	1.011718749999974e+00

 65	2.600050051291589e-05
	1.011718749999974e+00

 66	2.600050052149150e-05
	1.011718749999974e+00

 67	2.600050053200497e-05
	1.009765624999979e+00

 68	2.600050055303190e-05
	1.009765624999978e+00

 69	2.600050055963662e-05
	1.009765624999978e+00

 70	2.600050056951452e-05
	1.009765624999978e+00

 71	2.600050057273830e-05
	1.009765624999978e+00

 72	2.600050057795833e-05
	1.009765624999978e+00

 73	2.600050058409286e-05
	1.007812499999982e+00

 74	2.600050059636192e-05
	1.007812499999982e+00

 75	2.600050062090004e-05
	1.007812499999982e+00

 76	2.600050064583809e-05
	1.005859374999986e+00

 77	2.600050065179360e-05
	1.005859374999986e+00

 78	2.600050066370462e-05
	1.005859374999986e+00

 79	2.600050067573984e-05
	1.005859374999986e+00

 80	2.600050068125603e-05
	1.005859374999986e+00

 81	2.600050068986750e-05
	1.005859374999986e+00

 82	2.600050070027432e-05
	1.003906249999990e+00

 83	2.600050072108797e-05
	1.003906249999990e+00

 84	2.600050073154943e-05
	1.003906249999990e+00

 85	2.600050074651714e-05
	1.003906249999990e+00

 86	2.600050076586091e-05
	1.001953124999994e+00

 87	2.600050078958341e-05
	1.001953124999994e+00

 88	2.600050079924237e-05
	1.001953124999994e+00

 89	2.600050081305878e-05
	1.001953124999994e+00

 90	2.600050081781011e-05
	1.001953124999994e+00

 91	2.600050082525542e-05
	1.001953124999994e+00

 92	2.600050083422882e-05
	9.999999999999980e-01

 93	2.600050085217563e-05
	9.999999999999980e-01

 94	2.600050088806923e-05
	9.999999999999980e-01

 95	2.600050095985645e-05
	9.980468750000019e-01

 96	2.600050108461889e-05
	9.941406250000095e-01

 97	2.600050111000254e-05
	9.941406250000095e-01

 98	2.600050112298904e-05
	9.941406250000095e-01

 99	2.600050114079857e-05
	9.941406250000095e-01

 100	2.600050114724304e-05
	9.941406250000095e-01

 101	2.600050115700242e-05
	9.941406250000095e-01

 102	2.600050116907878e-05
	9.921875000000134e-01

 103	2.600050119323148e-05
	9.921875000000135e-01

 104	2.600050123548140e-05
	9.921875000000135e-01

 105	2.600050128204092e-05
	9.902343750000173e-01

 106	2.600050129687169e-05
	9.902343750000173e-01

 107	2.600050132653324e-05
	9.902343750000173e-01

 108	2.600050134096363e-05
	9.902343750000173e-01

 109	2.600050136019113e-05
	9.902343750000173e-01

 110	2.600050136735872e-05
	9.902343750000173e-01

 111	2.600050137806905e-05
	9.902343750000173e-01

 112	2.600050139145940e-05
	9.882812500000213e-01

 113	2.600050141824009e-05
	9.882812500000213e-01

 114	2.600050146572543e-05
	9.882812500000213e-01

 115	2.600050148130389e-05
	9.882812500000213e-01

 116	2.600050150069165e-05
	9.882812500000213e-01

 117	2.600050152865855e-05
	9.863281250000252e-01

 118	2.600050158459236e-05
	9.863281250000251e-01

 119	2.600050160613446e-05
	9.863281250000251e-01

 120	2.600050163079389e-05
	9.863281250000251e-01

 121	2.600050164148851e-05
	9.863281250000251e-01

 122	2.600050165656319e-05
	9.863281250000251e-01

 123	2.600050167627659e-05
	9.843750000000290e-01

 124	2.600050171570339e-05
	9.843750000000291e-01

 125	2.600050179455700e-05
	9.843750000000291e-01

 126	2.600050190630209e-05
	9.824218750000331e-01

 127	2.600050192368836e-05
	9.824218750000331e-01

 128	2.600050195846090e-05
	9.824218750000331e-01

 129	2.600050200048957e-05
	9.824218750000331e-01

 130	2.600050201908755e-05
	9.824218750000331e-01

 131	2.600050204194748e-05
	9.824218750000331e-01

 132	2.600050207520226e-05
	9.804687500000370e-01

 133	2.600050214171181e-05
	9.804687500000371e-01

 134	2.600050222218444e-05
	9.804687500000371e-01

 135	2.600050226282757e-05
	9.804687500000371e-01

 136	2.600050229984723e-05
	9.804687500000371e-01

 137	2.600050236798282e-05
	9.785156250000409e-01

 138	2.600050250425401e-05
	9.785156250000409e-01

 139	2.600050257338959e-05
	9.785156250000409e-01

 140	2.600050262099536e-05
	9.785156250000409e-01

 141	2.600050266378949e-05
	9.785156250000409e-01

 142	2.600050268854376e-05
	9.785156250000409e-01

 143	2.600050271721625e-05
	9.785156250000409e-01

 144	2.600050276084679e-05
	9.765625000000449e-01

 145	2.600050284810786e-05
	9.765625000000449e-01

 146	2.600050302263002e-05
	9.765625000000449e-01

 147	2.600050319774422e-05
	9.765625000000449e-01

 148	2.600050346198511e-05
	9.746093750000487e-01

 149	2.600050399046689e-05
	9.746093750000486e-01

 150	2.600050453261973e-05
	9.746093750000486e-01

 151	2.600050506261285e-05
	9.746093750000486e-01

 152	2.600050558488449e-05
	9.746093750000486e-01

 153	2.600050608930647e-05
	9.726562500000525e-01

 154	2.600050709815042e-05
	9.726562500000526e-01

 155	2.600050873452013e-05
	9.726562500000526e-01

 156	2.600051085471994e-05
	9.726562500000526e-01

 157	2.600051400012360e-05
	9.726562500000526e-01

 158	2.600051972824195e-05
	9.726562500000526e-01

 159	2.600053118447867e-05
	9.726562500000526e-01

 160	2.600055409695209e-05
	9.726562500000526e-01

 161	2.600059992189894e-05
	9.726562500000526e-01

 162	2.600069157179264e-05
	9.726562500000526e-01

 163	2.600087487158004e-05
	9.726562500000526e-01

 164	2.600100000000000e-05
	9.726562500000526e-01

 165	2.600103665995748e-05
	9.726562500000526e-01

 166	2.600110997987244e-05
	9.726562500000526e-01

 167	2.600125661970235e-05
	9.726562500000526e-01

 168	2.600154989936219e-05
	9.726562500000526e-01

 169	2.600213645868186e-05
	9.726562500000526e-01

 170	2.600330957732119e-05
	9.726562500000526e-01

 171	2.600565581459987e-05
	9.726562500000526e-01

 172	2.601034828915721e-05
	9.726562500000526e-01

 173	2.601973323827191e-05
	9.726562500000526e-01

 174	2.603850313650130e-05
	9.726562500000526e-01

 175	2.606350313650130e-05
	9.726562500000526e-01

 176	2.608850313650130e-05
	9.726562500000526e-01

 177	2.611350313650130e-05
	9.726562500000526e-01

 178	2.613850313650130e-05
	9.726562500000526e-01

 179	2.616350313650130e-05
	9.726562500000526e-01

 180	2.618850313650130e-05
	9.726562500000526e-01

 181	2.621350313650130e-05
	9.726562500000526e-01

 182	2.623850313650130e-05
	9.726562500000526e-01

 183	2.626350313650130e-05
	9.726562500000526e-01

 184	2.628850313650130e-05
	9.726562500000526e-01

 185	2.631350313650130e-05
	9.726562500000526e-01

 186	2.633850313650130e-05
	9.726562500000526e-01

 187	2.636350313650131e-05
	9.726562500000526e-01

 188	2.638850313650131e-05
	9.726562500000526e-01

 189	2.640100000000000e-05
	9.726562500000526e-01

 190	2.640110000000000e-05
	9.726562500000526e-01

 191	2.640127500000000e-05
	9.726562500000526e-01

 192	2.640132343750000e-05
	9.726562500000526e-01

 193	2.640140820312500e-05
	9.726562500000526e-01

 194	2.640141996389226e-05
	9.726562500000526e-01

 195	2.640144348542676e-05
	9.726562500000526e-01

 196	2.640147558905493e-05
	9.726562500000526e-01

 197	2.640148069438286e-05
	9.726562500000526e-01

 198	2.640149090503873e-05
	9.726562500000526e-01

 199	2.640149290845048e-05
	9.726562500000526e-01

 200	2.640149691527396e-05
	9.726562500000526e-01

 201	2.640149775398544e-05
	9.726562500000526e-01

 202	2.640149943140839e-05
	9.726562500000526e-01

 203	2.640149982824551e-05
	9.726562500000526e-01

 204	2.640150002858064e-05
	9.726562500000526e-01

 205	2.640150025178726e-05
	9.726562500000526e-01

 206	2.640150032942108e-05
	9.726562500000526e-01

 207	2.640150046023552e-05
	9.726562500000526e-01

 208	2.640150072186439e-05
	9.726562500000526e-01

 209	2.640150106917200e-05
	9.726562500000526e-01

 210	2.640150142054598e-05
	9.726562500000526e-01

 211	2.640150181412668e-05
	9.726562500000526e-01

 212	2.640150223692805e-05
	9.726562500000526e-01

 213	2.640150273605038e-05
	9.726562500000526e-01

 214	2.640150329471085e-05
	9.726562500000526e-01

 215	2.640150396865392e-05
	9.726562500000526e-01

 216	2.640150475873854e-05
	9.726562500000526e-01

 217	2.640150576130271e-05
	9.726562500000526e-01

 218	2.640150703348767e-05
	9.726562500000526e-01

 219	2.640150881638877e-05
	9.726562500000526e-01

 220	2.640151145284841e-05
	9.726562500000526e-01

 221	2.640151612627837e-05
	9.726562500000526e-01

 222	2.640152547313829e-05
	9.726562500000526e-01

 223	2.640154416685813e-05
	9.726562500000526e-01

 224	2.640158155429781e-05
	9.726562500000526e-01

 225	2.640165632917718e-05
	9.726562500000526e-01

 226	2.640180587893591e-05
	9.726562500000526e-01

 227	2.640200000000000e-05
	9.726562500000526e-01

 228	2.640202990995174e-05
	9.726562500000526e-01

 229	2.640208972985524e-05
	9.726562500000526e-01

 230	2.640220936966222e-05
	9.726562500000526e-01

 231	2.640244864927619e-05
	9.726562500000526e-01

 232	2.640292720850414e-05
	9.726562500000526e-01

 233	2.640388432696003e-05
	9.726562500000526e-01

 234	2.640579856387181e-05
	9.726562500000526e-01

 235	2.640962703769536e-05
	9.726562500000526e-01

 236	2.641728398534248e-05
	9.726562500000526e-01

 237	2.643259788063671e-05
	9.726562500000526e-01

 238	2.645759788063671e-05
	9.726562500000526e-01

 239	2.648259788063671e-05
	9.726562500000526e-01

 240	2.650759788063671e-05
	9.726562500000526e-01

 241	2.653259788063671e-05
	9.726562500000526e-01

 242	2.655759788063671e-05
	9.726562500000526e-01

 243	2.658259788063671e-05
	9.726562500000526e-01

 244	2.660759788063671e-05
	9.726562500000526e-01

 245	2.663259788063671e-05
	9.726562500000526e-01

 246	2.665759788063671e-05
	9.726562500000526e-01

 247	2.668259788063672e-05
	9.726562500000526e-01

 248	2.670759788063672e-05
	9.726562500000526e-01

 249	2.673259788063672e-05
	9.726562500000526e-01

 250	2.675759788063672e-05
	9.726562500000526e-01

 251	2.678259788063672e-05
	9.726562500000526e-01

 252	2.680759788063672e-05
	9.726562500000526e-01

 253	2.683259788063672e-05
	9.726562500000526e-01

 254	2.685759788063672e-05
	9.726562500000526e-01

 255	2.688259788063672e-05
	9.726562500000526e-01

 256	2.690759788063672e-05
	9.726562500000526e-01

 257	2.693259788063672e-05
	9.726562500000526e-01

 258	2.695759788063672e-05
	9.726562500000526e-01

 259	2.698259788063672e-05
	9.726562500000526e-01

 260	2.700000000000000e-05
	9.726562500000526e-01

 261	2.700010000000000e-05
	9.726562500000526e-01

 262	2.700027500000000e-05
	9.726562500000526e-01

 263	2.700032343750000e-05
	9.726562500000526e-01

 264	2.700040820312500e-05
	9.726562500000526e-01

 265	2.700041566539652e-05
	9.726562500000525e-01

 266	2.700043058993956e-05
	9.726562500000526e-01

 267	2.700046043902563e-05
	9.726562500000526e-01

 268	2.700046386148204e-05
	9.726562500000525e-01

 269	2.700047070639485e-05
	9.726562500000526e-01

 270	2.700048439622046e-05
	9.726562500000526e-01

 271	2.700048608109014e-05
	9.726562500000525e-01

 272	2.700048945082948e-05
	9.726562500000526e-01

 273	2.700049619030816e-05
	9.726562500000526e-01

 274	2.700049704838661e-05
	9.726562500000525e-01

 275	2.700049876454352e-05
	9.726562500000526e-01

 276	2.700049902105951e-05
	9.726562500000525e-01

 277	2.700049953409149e-05
	9.726562500000526e-01

 278	2.700049963876937e-05
	9.726562500000525e-01

 279	2.700049984812511e-05
	9.726562500000526e-01

 280	2.700049990790816e-05
	9.726562500000525e-01

 281	2.700049994866900e-05
	9.726562500000525e-01

 282	2.700049997631384e-05
	9.726562500000525e-01

 283	2.700049998702802e-05
	9.726562500000526e-01

 284	2.700050000263948e-05
	9.726562500000526e-01

 285	2.700050001074907e-05
	9.726562500000526e-01

 286	2.700050001433225e-05
	9.726562500000526e-01

 287	2.700050002014113e-05
	9.726562500000526e-01

 288	2.700050002696056e-05
	9.707031250000565e-01

 289	2.700050004059942e-05
	9.707031250000564e-01

 290	2.700050004452736e-05
	9.707031250000564e-01

 291	2.700050005075104e-05
	9.707031250000564e-01

 292	2.700050005266150e-05
	9.707031250000564e-01

 293	2.700050005584859e-05
	9.707031250000564e-01

 294	2.700050005950914e-05
	9.687500000000603e-01

 295	2.700050006683024e-05
	9.687500000000604e-01

 296	2.700050008147242e-05
	9.687500000000604e-01

 297	2.700050011075680e-05
	9.667968750000644e-01

 298	2.700050016932555e-05
	9.628906250000722e-01

 299	2.700050018378986e-05
	9.628906250000721e-01

 300	2.700050018852637e-05
	9.628906250000721e-01

 301	2.700050019593394e-05
	9.628906250000721e-01

 302	2.700050019824275e-05
	9.628906250000721e-01

 303	2.700050020205843e-05
	9.628906250000721e-01

 304	2.700050020647265e-05
	9.609375000000759e-01

 305	2.700050021530107e-05
	9.609375000000761e-01

 306	2.700050023295793e-05
	9.609375000000761e-01

 307	2.700050025042308e-05
	9.589843750000798e-01

 308	2.700050025428549e-05
	9.589843750000798e-01

 309	2.700050026201031e-05
	9.589843750000798e-01

 310	2.700050027173392e-05
	9.589843750000798e-01

 311	2.700050027538938e-05
	9.589843750000798e-01

 312	2.700050028127812e-05
	9.589843750000798e-01

 313	2.700050028822545e-05
	9.570312500000837e-01

 314	2.700050030212011e-05
	9.570312500000838e-01

 315	2.700050030914133e-05
	9.570312500000838e-01

 316	2.700050031983567e-05
	9.570312500000838e-01

 317	2.700050033300580e-05
	9.550781250000877e-01

 318	2.700050034864275e-05
	9.550781250000876e-01

 319	2.700050035497490e-05
	9.550781250000876e-01

 320	2.700050036464591e-05
	9.550781250000876e-01

 321	2.700050036774653e-05
	9.550781250000876e-01

 322	2.700050037277876e-05
	9.550781250000876e-01

 323	2.700050037868212e-05
	9.531250000000915e-01

 324	2.700050039048882e-05
	9.531250000000916e-01

 325	2.700050041410223e-05
	9.531250000000916e-01

 326	2.700050044190634e-05
	9.511718750000956e-01

 327	2.700050044905044e-05
	9.511718750000956e-01

 328	2.700050046114556e-05
	9.511718750000956e-01

 329	2.700050046475241e-05
	9.511718750000956e-01

 330	2.700050047052070e-05
	9.511718750000956e-01

 331	2.700050047736499e-05
	9.492187500000995e-01

 332	2.700050049105358e-05
	9.492187500000996e-01

 333	2.700050050453635e-05
	9.492187500000996e-01

 334	2.700050051089667e-05
	9.492187500000996e-01

 335	2.700050052067601e-05
	9.492187500000996e-01

 336	2.700050053263308e-05
	9.472656250001034e-01

 337	2.700050055654723e-05
	9.472656250001034e-01

 338	2.700050056316049e-05
	9.472656250001034e-01

 339	2.700050057295679e-05
	9.472656250001034e-01

 340	2.700050057617780e-05
	9.472656250001034e-01

 341	2.700050058139496e-05
	9.472656250001034e-01

 342	2.700050058752464e-05
	9.453125000001074e-01

 343	2.700050059978400e-05
	9.453125000001074e-01

 344	2.700050062430272e-05
	9.453125000001074e-01

 345	2.700050065162136e-05
	9.433593750001112e-01

 346	2.700050065659911e-05
	9.433593750001111e-01

 347	2.700050066655460e-05
	9.433593750001111e-01

 348	2.700050068646558e-05
	9.433593750001111e-01

 349	2.700050069173685e-05
	9.433593750001111e-01

 350	2.700050069977943e-05
	9.433593750001111e-01

 351	2.700050070967714e-05
	9.414062500001150e-01

 352	2.700050072947257e-05
	9.414062500001151e-01

 353	2.700050074167208e-05
	9.414062500001151e-01

 354	2.700050075614571e-05
	9.414062500001151e-01

 355	2.700050077790271e-05
	9.394531250001190e-01

 356	2.700050080145048e-05
	9.394531250001189e-01

 357	2.700050081212586e-05
	9.394531250001189e-01

 358	2.700050082723031e-05
	9.394531250001189e-01

 359	2.700050083249880e-05
	9.394531250001189e-01

 360	2.700050084066617e-05
	9.394531250001189e-01

 361	2.700050085059182e-05
	9.375000000001228e-01

 362	2.700050087044312e-05
	9.375000000001229e-01

 363	2.700050091014571e-05
	9.375000000001229e-01

 364	2.700050098955089e-05
	9.355468750001268e-01

 365	2.700050111771610e-05
	9.316406250001346e-01

 366	2.700050114482113e-05
	9.316406250001346e-01

 367	2.700050115917589e-05
	9.316406250001346e-01

 368	2.700050117847234e-05
	9.316406250001346e-01

 369	2.700050118561466e-05
	9.316406250001346e-01

 370	2.700050119628805e-05
	9.316406250001346e-01

 371	2.700050120963153e-05
	9.296875000001384e-01

 372	2.700050123631849e-05
	9.296875000001386e-01

 373	2.700050128167474e-05
	9.296875000001386e-01

 374	2.700050133271084e-05
	9.277343750001423e-01

 375	2.700050134966805e-05
	9.277343750001423e-01

 376	2.700050138358248e-05
	9.277343750001423e-01

 377	2.700050139935119e-05
	9.277343750001423e-01

 378	2.700050141979838e-05
	9.277343750001423e-01

 379	2.700050142763506e-05
	9.277343750001423e-01

 380	2.700050143920628e-05
	9.277343750001423e-01

 381	2.700050145380663e-05
	9.257812500001462e-01

 382	2.700050148300732e-05
	9.257812500001463e-01

 383	2.700050154140872e-05
	9.257812500001463e-01

 384	2.700050155814211e-05
	9.257812500001463e-01

 385	2.700050157802384e-05
	9.257812500001463e-01

 386	2.700050160779384e-05
	9.238281250001502e-01

 387	2.700050166733386e-05
	9.238281250001501e-01

 388	2.700050169303105e-05
	9.238281250001501e-01

 389	2.700050172106861e-05
	9.238281250001501e-01

 390	2.700050173392246e-05
	9.238281250001501e-01

 391	2.700050175142756e-05
	9.238281250001501e-01

 392	2.700050177493565e-05
	9.218750000001540e-01

 393	2.700050182195185e-05
	9.218750000001541e-01

 394	2.700050191598424e-05
	9.218750000001541e-01

 395	2.700050204420964e-05
	9.199218750001581e-01

 396	2.700050205808547e-05
	9.199218750001581e-01

 397	2.700050208583714e-05
	9.199218750001581e-01

 398	2.700050214134047e-05
	9.199218750001581e-01

 399	2.700050216913690e-05
	9.199218750001581e-01

 400	2.700050219930249e-05
	9.199218750001581e-01

 401	2.700050224764963e-05
	9.179687500001620e-01

 402	2.700050234434392e-05
	9.179687500001621e-01

 403	2.700050242794264e-05
	9.179687500001621e-01

 404	2.700050248576156e-05
	9.179687500001621e-01

 405	2.700050253250984e-05
	9.179687500001621e-01

 406	2.700050262600639e-05
	9.160156250001659e-01

 407	2.700050281299950e-05
	9.160156250001659e-01

 408	2.700050292704081e-05
	9.160156250001659e-01

 409	2.700050300497528e-05
	9.160156250001659e-01

 410	2.700050306047250e-05
	9.160156250001659e-01

 411	2.700050310673084e-05
	9.160156250001659e-01

 412	2.700050319756986e-05
	9.140625000001699e-01

 413	2.700050337924788e-05
	9.140625000001699e-01

 414	2.700050374260394e-05
	9.140625000001699e-01

 415	2.700050424713467e-05
	9.140625000001699e-01

 416	2.700050478863395e-05
	9.121093750001737e-01

 417	2.700050568691584e-05
	9.121093750001736e-01

 418	2.700050656224219e-05
	9.121093750001736e-01

 419	2.700050789704899e-05
	9.121093750001736e-01

 420	2.700050940552524e-05
	9.121093750001736e-01

 421	2.700051208609594e-05
	9.121093750001736e-01

 422	2.700051593838449e-05
	9.121093750001736e-01

 423	2.700052364296161e-05
	9.121093750001736e-01

 424	2.700053905211584e-05
	9.121093750001736e-01

 425	2.700056987042430e-05
	9.121093750001736e-01

 426	2.700063150704123e-05
	9.121093750001736e-01

 427	2.700075478027509e-05
	9.121093750001736e-01

 428	2.700100000000000e-05
	9.121093750001736e-01

 429	2.700102465464677e-05
	9.121093750001736e-01

 430	2.700107396394031e-05
	9.121093750001736e-01

 431	2.700117258252740e-05
	9.121093750001736e-01

 432	2.700136981970157e-05
	9.121093750001736e-01

 433	2.700176429404991e-05
	9.121093750001736e-01

 434	2.700255324274659e-05
	9.121093750001736e-01

 435	2.700413114013996e-05
	9.121093750001736e-01

 436	2.700728693492670e-05
	9.121093750001736e-01

 437	2.701359852450017e-05
	9.121093750001736e-01

 438	2.702622170364712e-05
	9.121093750001736e-01

 439	2.705122170364713e-05
	9.121093750001736e-01

 440	2.707622170364713e-05
	9.121093750001736e-01

 441	2.710122170364713e-05
	9.121093750001736e-01

 442	2.712622170364713e-05
	9.121093750001736e-01

 443	2.715122170364713e-05
	9.121093750001736e-01

 444	2.717622170364713e-05
	9.121093750001736e-01

 445	2.720122170364713e-05
	9.121093750001736e-01

 446	2.722622170364713e-05
	9.121093750001736e-01

 447	2.725122170364713e-05
	9.121093750001736e-01

 448	2.727622170364713e-05
	9.121093750001736e-01

 449	2.730122170364713e-05
	9.121093750001736e-01

 450	2.732622170364713e-05
	9.121093750001736e-01

 451	2.735122170364713e-05
	9.121093750001736e-01

 452	2.737622170364713e-05
	9.121093750001736e-01

 453	2.740100000000000e-05
	9.121093750001736e-01

 454	2.740110000000000e-05
	9.121093750001736e-01

 455	2.740127500000000e-05
	9.121093750001736e-01

 456	2.740132343750000e-05
	9.121093750001736e-01

 457	2.740140820312500e-05
	9.121093750001736e-01

 458	2.740141968605612e-05
	9.121093750001736e-01

 459	2.740144265191836e-05
	9.121093750001736e-01

 460	2.740147621418624e-05
	9.121093750001736e-01

 461	2.740148124372170e-05
	9.121093750001736e-01

 462	2.740149130279264e-05
	9.121093750001736e-01

 463	2.740149323113086e-05
	9.121093750001736e-01

 464	2.740149708780731e-05
	9.121093750001736e-01

 465	2.740149787907733e-05
	9.121093750001736e-01

 466	2.740149946161735e-05
	9.121093750001736e-01

 467	2.740149983123319e-05
	9.121093750001736e-01

 468	2.740150001886406e-05
	9.121093750001736e-01

 469	2.740150022924206e-05
	9.121093750001736e-01

 470	2.740150030319396e-05
	9.121093750001736e-01

 471	2.740150042642518e-05
	9.121093750001736e-01

 472	2.740150067288763e-05
	9.121093750001736e-01

 473	2.740150101679469e-05
	9.121093750001736e-01

 474	2.740150135354042e-05
	9.121093750001736e-01

 475	2.740150174018499e-05
	9.121093750001736e-01

 476	2.740150214321886e-05
	9.121093750001736e-01

 477	2.740150262816610e-05
	9.121093750001736e-01

 478	2.740150315736032e-05
	9.121093750001736e-01

 479	2.740150380368575e-05
	9.121093750001736e-01

 480	2.740150454316676e-05
	9.121093750001736e-01

 481	2.740150548565956e-05
	9.121093750001736e-01

 482	2.740150664896538e-05
	9.121093750001736e-01

 483	2.740150826574498e-05
	9.121093750001736e-01

 484	2.740151055682898e-05
	9.121093750001736e-01

 485	2.740151445165433e-05
	9.121093750001736e-01

 486	2.740152223794689e-05
	9.121093750001736e-01

 487	2.740153781053202e-05
	9.121093750001736e-01

 488	2.740156895570229e-05
	9.121093750001736e-01

 489	2.740163124604282e-05
	9.121093750001736e-01

 490	2.740175582672389e-05
	9.121093750001736e-01

 491	2.740200000000000e-05
	9.121093750001736e-01

 492	2.740202491613621e-05
	9.121093750001736e-01

 493	2.740207474840864e-05
	9.121093750001736e-01

 494	2.740217441295349e-05
	9.121093750001736e-01

 495	2.740237374204320e-05
	9.121093750001736e-01

 496	2.740277240022261e-05
	9.121093750001736e-01

 497	2.740356971658143e-05
	9.121093750001736e-01

 498	2.740516434929908e-05
	9.121093750001736e-01

 499	2.740835361473438e-05
	9.121093750001736e-01

 500	2.741473214560497e-05
	9.121093750001736e-01

 501	2.742748920734615e-05
	9.121093750001736e-01

 502	2.745248920734615e-05
	9.121093750001736e-01

 503	2.747748920734615e-05
	9.121093750001736e-01

 504	2.750248920734615e-05
	9.121093750001736e-01

 505	2.752748920734615e-05
	9.121093750001736e-01

 506	2.755248920734615e-05
	9.121093750001736e-01

 507	2.757748920734616e-05
	9.121093750001736e-01

 508	2.760248920734616e-05
	9.121093750001736e-01

 509	2.762748920734616e-05
	9.121093750001736e-01

 510	2.765248920734616e-05
	9.121093750001736e-01

 511	2.767748920734616e-05
	9.121093750001736e-01

 512	2.770248920734616e-05
	9.121093750001736e-01

 513	2.772748920734616e-05
	9.121093750001736e-01

 514	2.775248920734616e-05
	9.121093750001736e-01

 515	2.777748920734616e-05
	9.121093750001736e-01

 516	2.780248920734616e-05
	9.121093750001736e-01

 517	2.782748920734616e-05
	9.121093750001736e-01

 518	2.785248920734616e-05
	9.121093750001736e-01

 519	2.787748920734616e-05
	9.121093750001736e-01

 520	2.790248920734616e-05
	9.121093750001736e-01

 521	2.792748920734616e-05
	9.121093750001736e-01

 522	2.795248920734616e-05
	9.121093750001736e-01

 523	2.797748920734617e-05
	9.121093750001736e-01

 524	2.800000000000000e-05
	9.121093750001736e-01

 525	2.800010000000000e-05
	9.121093750001736e-01

 526	2.800027500000000e-05
	9.121093750001736e-01

 527	2.800032343750000e-05
	9.121093750001736e-01

 528	2.800040820312500e-05
	9.121093750001736e-01

 529	2.800041550597564e-05
	9.121093750001737e-01

 530	2.800043011167692e-05
	9.121093750001736e-01

 531	2.800045932307948e-05
	9.121093750001736e-01

 532	2.800046267345935e-05
	9.121093750001737e-01

 533	2.800046937421910e-05
	9.121093750001736e-01

 534	2.800048277573860e-05
	9.121093750001736e-01

 535	2.800048439107160e-05
	9.121093750001737e-01

 536	2.800048762173760e-05
	9.121093750001736e-01

 537	2.800049408306960e-05
	9.121093750001736e-01

 538	2.800049489039602e-05
	9.121093750001737e-01

 539	2.800049650504885e-05
	9.121093750001736e-01

 540	2.800049973435452e-05
	9.121093750001736e-01

 541	2.800049983764432e-05
	9.121093750001737e-01

 542	2.800049994194996e-05
	9.121093750001737e-01

 543	2.800049998408518e-05
	9.121093750001737e-01

 544	2.800050000036269e-05
	9.121093750001736e-01

 545	2.800050002063214e-05
	9.101562500001776e-01

 546	2.800050002743369e-05
	9.101562500001776e-01

 547	2.800050003760710e-05
	9.101562500001776e-01

 548	2.800050005031807e-05
	9.082031250001815e-01

 549	2.800050005923410e-05
	9.082031250001814e-01

 550	2.800050006721049e-05
	9.082031250001814e-01

 551	2.800050007120454e-05
	9.082031250001814e-01

 552	2.800050007764772e-05
	9.082031250001814e-01

 553	2.800050007959925e-05
	9.082031250001814e-01

 554	2.800050008285063e-05
	9.082031250001814e-01

 555	2.800050008658876e-05
	9.062500000001853e-01

 556	2.800050009406501e-05
	9.062500000001854e-01

 557	2.800050010901751e-05
	9.062500000001854e-01

 558	2.800050013892252e-05
	9.042968750001894e-01

 559	2.800050014339052e-05
	9.042968750001894e-01

 560	2.800050015103868e-05
	9.042968750001892e-01

 561	2.800050015326008e-05
	9.042968750001892e-01

 562	2.800050015693267e-05
	9.042968750001892e-01

 563	2.800050016118023e-05
	9.023437500001932e-01

 564	2.800050016967536e-05
	9.023437500001933e-01

 565	2.800050018311923e-05
	9.023437500001933e-01

 566	2.800050018737209e-05
	9.023437500001933e-01

 567	2.800050019408698e-05
	9.023437500001933e-01

 568	2.800050020213333e-05
	9.003906250001972e-01

 569	2.800050021822602e-05
	9.003906250001971e-01

 570	2.800050022317967e-05
	9.003906250001971e-01

 571	2.800050023086415e-05
	9.003906250001971e-01

 572	2.800050023327762e-05
	9.003906250001971e-01

 573	2.800050023725696e-05
	9.003906250001971e-01

 574	2.800050024186878e-05
	8.984375000002010e-01

 575	2.800050025109242e-05
	8.984375000002011e-01

 576	2.800050026953970e-05
	8.984375000002011e-01

 577	2.800050028840768e-05
	8.964843750002048e-01

 578	2.800050029223404e-05
	8.964843750002048e-01

 579	2.800050029988677e-05
	8.964843750002048e-01

 580	2.800050031182399e-05
	8.964843750002048e-01

 581	2.800050031562132e-05
	8.964843750002048e-01

 582	2.800050032168246e-05
	8.964843750002048e-01

 583	2.800050032888476e-05
	8.945312500002087e-01

 584	2.800050034328935e-05
	8.945312500002088e-01

 585	2.800050035088758e-05