Title: ** sch_path: /home/tare/desktop/analog design/lab2_part2.sch
Date: Thu Feb  1 15:40:37  2024
Plotname: Transient Analysis
Flags: real
No. Variables: 2
No. Points: 46493
Variables:
	0	time	time
	1	v(vout)	voltage
Values:
 0	3.200000000000000e-05
	1.046874999999905e+00

 1	3.200010000000000e-05
	1.046874999999905e+00

 2	3.200027500000000e-05
	1.046874999999905e+00

 3	3.200032343749999e-05
	1.046874999999905e+00

 4	3.200040820312500e-05
	1.046874999999905e+00

 5	3.200041683280835e-05
	1.046874999999905e+00

 6	3.200043409217506e-05
	1.046874999999905e+00

 7	3.200046861090847e-05
	1.046874999999905e+00

 8	3.200047256045872e-05
	1.046874999999905e+00

 9	3.200048045955921e-05
	1.046874999999905e+00

 10	3.200049625776021e-05
	1.046874999999905e+00

 11	3.200049833820247e-05
	1.046874999999905e+00

 12	3.200049894334253e-05
	1.046874999999905e+00

 13	3.200049912699920e-05
	1.046874999999905e+00

 14	3.200049949431253e-05
	1.046874999999905e+00

 15	3.200049959168467e-05
	1.046874999999905e+00

 16	3.200049978642896e-05
	1.046874999999905e+00

 17	3.200049985270434e-05
	1.046874999999905e+00

 18	3.200049998525509e-05
	1.046874999999905e+00

 19	3.200050003849070e-05
	1.044921874999908e+00

 20	3.200050005262658e-05
	1.044921874999908e+00

 21	3.200050005801906e-05
	1.044921874999908e+00

 22	3.200050006639238e-05
	1.044921874999908e+00

 23	3.200050006902753e-05
	1.044921874999908e+00

 24	3.200050007334954e-05
	1.044921874999908e+00

 25	3.200050007837886e-05
	1.042968749999912e+00

 26	3.200050008843750e-05
	1.042968749999912e+00

 27	3.200050010175448e-05
	1.042968749999912e+00

 28	3.200050010662666e-05
	1.042968749999912e+00

 29	3.200050011426228e-05
	1.042968749999912e+00

 30	3.200050012346377e-05
	1.041015624999916e+00

 31	3.200050014186674e-05
	1.041015624999916e+00

 32	3.200050014727534e-05
	1.041015624999916e+00

 33	3.200050015555465e-05
	1.041015624999916e+00

 34	3.200050015818925e-05
	1.041015624999916e+00

 35	3.200050016251174e-05
	1.041015624999916e+00

 36	3.200050016754036e-05
	1.039062499999920e+00

 37	3.200050017759760e-05
	1.039062499999920e+00

 38	3.200050019771208e-05
	1.039062499999920e+00

 39	3.200050021902223e-05
	1.037109374999924e+00

 40	3.200050022304864e-05
	1.037109374999924e+00

 41	3.200050023110148e-05
	1.037109374999924e+00

 42	3.200050024720715e-05
	1.037109374999924e+00

 43	3.200050025110744e-05
	1.037109374999924e+00

 44	3.200050025723885e-05
	1.037109374999924e+00

 45	3.200050026461217e-05
	1.035156249999927e+00

 46	3.200050027935880e-05
	1.035156249999928e+00

 47	3.200050029014871e-05
	1.035156249999928e+00

 48	3.200050029887690e-05
	1.035156249999928e+00

 49	3.200050030423258e-05
	1.035156249999928e+00

 50	3.200050031063497e-05
	1.035156249999928e+00

 51	3.200050032023815e-05
	1.033203124999932e+00

 52	3.200050033944450e-05
	1.033203124999932e+00

 53	3.200050034666197e-05
	1.033203124999932e+00

 54	3.200050035744113e-05
	1.033203124999932e+00

 55	3.200050036097601e-05
	1.033203124999932e+00

 56	3.200050036665938e-05
	1.033203124999932e+00

 57	3.200050037337494e-05
	1.031249999999935e+00

 58	3.200050038680607e-05
	1.031249999999936e+00

 59	3.200050041366832e-05
	1.031249999999936e+00

 60	3.200050046739283e-05
	1.029296874999939e+00

 61	3.200050057484184e-05
	1.025390624999947e+00

 62	3.200050059265390e-05
	1.025390624999947e+00

 63	3.200050060132003e-05
	1.025390624999947e+00

 64	3.200050061410034e-05
	1.025390624999947e+00

 65	3.200050061836917e-05
	1.025390624999947e+00

 66	3.200050062512274e-05
	1.025390624999947e+00

 67	3.200050063320268e-05
	1.023437499999951e+00

 68	3.200050064936258e-05
	1.023437499999951e+00

 69	3.200050068168236e-05
	1.023437499999951e+00

 70	3.200050071611560e-05
	1.021484374999955e+00

 71	3.200050072476693e-05
	1.021484374999955e+00

 72	3.200050074206959e-05
	1.021484374999955e+00

 73	3.200050075691559e-05
	1.021484374999955e+00

 74	3.200050076488335e-05
	1.021484374999955e+00

 75	3.200050077684507e-05
	1.021484374999955e+00

 76	3.200050079174000e-05
	1.019531249999959e+00

 77	3.200050082152985e-05
	1.019531249999959e+00

 78	3.200050083676237e-05
	1.019531249999959e+00

 79	3.200050085688198e-05
	1.019531249999959e+00

 80	3.200050088454173e-05
	1.017578124999963e+00

 81	3.200050091955099e-05
	1.017578124999963e+00

 82	3.200050093405040e-05
	1.017578124999963e+00

 83	3.200050095303275e-05
	1.017578124999963e+00

 84	3.200050096020710e-05
	1.017578124999963e+00

 85	3.200050097093524e-05
	1.017578124999963e+00

 86	3.200050098434017e-05
	1.015624999999967e+00

 87	3.200050101115002e-05
	1.015624999999967e+00

 88	3.200050106476973e-05
	1.015624999999967e+00

 89	3.200050112960412e-05
	1.013671874999971e+00

 90	3.200050114150938e-05
	1.013671874999970e+00

 91	3.200050116531990e-05
	1.013671874999970e+00

 92	3.200050117791917e-05
	1.013671874999970e+00

 93	3.200050119535670e-05
	1.013671874999970e+00

 94	3.200050121847574e-05
	1.011718749999974e+00

 95	3.200050126471382e-05
	1.011718749999974e+00

 96	3.200050129016489e-05
	1.011718749999974e+00

 97	3.200050131915747e-05
	1.011718749999974e+00

 98	3.200050136386466e-05
	1.009765624999979e+00

 99	3.200050142316217e-05
	1.009765624999978e+00

 100	3.200050144892749e-05
	1.009765624999978e+00

 101	3.200050147704413e-05
	1.009765624999978e+00

 102	3.200050148993643e-05
	1.009765624999978e+00

 103	3.200050150748223e-05
	1.009765624999978e+00

 104	3.200050153105711e-05
	1.007812499999982e+00

 105	3.200050157820688e-05
	1.007812499999982e+00

 106	3.200050165649753e-05
	1.007812499999982e+00

 107	3.200050174565576e-05
	1.005859374999986e+00

 108	3.200050179364089e-05
	1.005859374999986e+00

 109	3.200050186646976e-05
	1.005859374999986e+00

 110	3.200050189603604e-05
	1.005859374999986e+00

 111	3.200050192600619e-05
	1.005859374999986e+00

 112	3.200050194078561e-05
	1.005859374999986e+00

 113	3.200050196038755e-05
	1.005859374999986e+00

 114	3.200050198725224e-05
	1.003906249999990e+00

 115	3.200050204098161e-05
	1.003906249999990e+00

 116	3.200050214844036e-05
	1.003906249999990e+00

 117	3.200050220157826e-05
	1.003906249999990e+00

 118	3.200050224263787e-05
	1.003906249999990e+00

 119	3.200050232475710e-05
	1.001953124999994e+00

 120	3.200050248899555e-05
	1.001953124999994e+00

 121	3.200050258762929e-05
	1.001953124999994e+00

 122	3.200050265547064e-05
	1.001953124999994e+00

 123	3.200050270512587e-05
	1.001953124999994e+00

 124	3.200050274697443e-05
	1.001953124999994e+00

 125	3.200050282873520e-05
	9.999999999999980e-01

 126	3.200050299225676e-05
	9.999999999999980e-01

 127	3.200050331929988e-05
	9.999999999999980e-01

 128	3.200050397338611e-05
	9.980468750000019e-01

 129	3.200050461443968e-05
	9.980468750000018e-01

 130	3.200050546361210e-05
	9.980468750000018e-01

 131	3.200050635179671e-05
	9.980468750000018e-01

 132	3.200050768002210e-05
	9.980468750000018e-01

 133	3.200050929716840e-05
	9.980468750000018e-01

 134	3.200051200584188e-05
	9.980468750000018e-01

 135	3.200051612653636e-05
	9.980468750000018e-01

 136	3.200052436792531e-05
	9.980468750000018e-01

 137	3.200054085070323e-05
	9.980468750000018e-01

 138	3.200057381625906e-05
	9.980468750000018e-01

 139	3.200063974737072e-05
	9.980468750000018e-01

 140	3.200077160959404e-05
	9.980468750000018e-01

 141	3.200100000000000e-05
	9.980468750000018e-01

 142	3.200102637244467e-05
	9.980468750000018e-01

 143	3.200107911733400e-05
	9.980468750000018e-01

 144	3.200118460711265e-05
	9.980468750000018e-01

 145	3.200139558666996e-05
	9.980468750000018e-01

 146	3.200181754578459e-05
	9.980468750000018e-01

 147	3.200266146401385e-05
	9.980468750000018e-01

 148	3.200434930047236e-05
	9.980468750000018e-01

 149	3.200772497338937e-05
	9.980468750000018e-01

 150	3.201447631922341e-05
	9.980468750000018e-01

 151	3.202797901089149e-05
	9.980468750000018e-01

 152	3.205297901089149e-05
	9.980468750000018e-01

 153	3.207797901089149e-05
	9.980468750000018e-01

 154	3.210297901089149e-05
	9.980468750000018e-01

 155	3.212797901089149e-05
	9.980468750000018e-01

 156	3.215297901089149e-05
	9.980468750000018e-01

 157	3.217797901089149e-05
	9.980468750000018e-01

 158	3.220297901089149e-05
	9.980468750000018e-01

 159	3.222797901089149e-05
	9.980468750000018e-01

 160	3.225297901089150e-05
	9.980468750000018e-01

 161	3.227797901089150e-05
	9.980468750000018e-01

 162	3.230297901089150e-05
	9.980468750000018e-01

 163	3.232797901089150e-05
	9.980468750000018e-01

 164	3.235297901089150e-05
	9.980468750000018e-01

 165	3.237797901089150e-05
	9.980468750000018e-01

 166	3.240100000000000e-05
	9.980468750000018e-01

 167	3.240110000000000e-05
	9.980468750000018e-01

 168	3.240127500000000e-05
	9.980468750000018e-01

 169	3.240132343750001e-05
	9.980468750000018e-01

 170	3.240140820312500e-05
	9.980468750000018e-01

 171	3.240142149937883e-05
	9.980468750000018e-01

 172	3.240144809188650e-05
	9.980468750000018e-01

 173	3.240145382647409e-05
	9.980468750000018e-01

 174	3.240146529564927e-05
	9.980468750000018e-01

 175	3.240148823399963e-05
	9.980468750000018e-01

 176	3.240149241828860e-05
	9.980468750000018e-01

 177	3.240149395325279e-05
	9.980468750000018e-01

 178	3.240149702318117e-05
	9.980468750000018e-01

 179	3.240149777149444e-05
	9.980468750000018e-01

 180	3.240149926812096e-05
	9.980468750000018e-01

 181	3.240149967734387e-05
	9.980468750000018e-01

 182	3.240149989906664e-05
	9.980468750000018e-01

 183	3.240150002871320e-05
	9.980468750000018e-01

 184	3.240150016560080e-05
	9.980468750000018e-01

 185	3.240150023167602e-05
	9.980468750000018e-01

 186	3.240150033615214e-05
	9.980468750000018e-01

 187	3.240150054510436e-05
	9.980468750000018e-01

 188	3.240150087275793e-05
	9.980468750000018e-01

 189	3.240150124051318e-05
	9.980468750000018e-01

 190	3.240150163876132e-05
	9.980468750000018e-01

 191	3.240150207228960e-05
	9.980468750000018e-01

 192	3.240150257146396e-05
	9.980468750000018e-01

 193	3.240150314402733e-05
	9.980468750000018e-01

 194	3.240150382420367e-05
	9.980468750000018e-01

 195	3.240150463731736e-05
	9.980468750000018e-01

 196	3.240150565710774e-05
	9.980468750000018e-01

 197	3.240150697583823e-05
	9.980468750000018e-01

 198	3.240150881468028e-05
	9.980468750000018e-01

 199	3.240151159899455e-05
	9.980468750000018e-01

 200	3.240151657540861e-05
	9.980468750000018e-01

 201	3.240152652823671e-05
	9.980468750000018e-01

 202	3.240154643389293e-05
	9.980468750000018e-01

 203	3.240158624520536e-05
	9.980468750000018e-01

 204	3.240166586783022e-05
	9.980468750000018e-01

 205	3.240182511307996e-05
	9.980468750000018e-01

 206	3.240200000000001e-05
	9.980468750000018e-01

 207	3.240203184904995e-05
	9.980468750000018e-01

 208	3.240209554714984e-05
	9.980468750000018e-01

 209	3.240222294334963e-05
	9.980468750000018e-01

 210	3.240247773574919e-05
	9.980468750000018e-01

 211	3.240298732054833e-05
	9.980468750000018e-01

 212	3.240400649014660e-05
	9.980468750000018e-01

 213	3.240604482934314e-05
	9.980468750000018e-01

 214	3.241012150773622e-05
	9.980468750000018e-01

 215	3.241827486452239e-05
	9.980468750000018e-01

 216	3.243458157809471e-05
	9.980468750000018e-01

 217	3.245958157809471e-05
	9.980468750000018e-01

 218	3.248458157809471e-05
	9.980468750000018e-01

 219	3.250958157809471e-05
	9.980468750000018e-01

 220	3.253458157809471e-05
	9.980468750000018e-01

 221	3.255958157809471e-05
	9.980468750000018e-01

 222	3.258458157809471e-05
	9.980468750000018e-01

 223	3.260958157809471e-05
	9.980468750000018e-01

 224	3.263458157809471e-05
	9.980468750000018e-01

 225	3.265958157809471e-05
	9.980468750000018e-01

 226	3.268458157809471e-05
	9.980468750000018e-01

 227	3.270958157809471e-05
	9.980468750000018e-01

 228	3.273458157809471e-05
	9.980468750000018e-01

 229	3.275958157809471e-05
	9.980468750000018e-01

 230	3.278458157809471e-05
	9.980468750000018e-01

 231	3.280958157809471e-05
	9.980468750000018e-01

 232	3.283458157809471e-05
	9.980468750000018e-01

 233	3.285958157809472e-05
	9.980468750000018e-01

 234	3.288458157809472e-05
	9.980468750000018e-01

 235	3.290958157809472e-05
	9.980468750000018e-01

 236	3.293458157809472e-05
	9.980468750000018e-01

 237	3.295958157809472e-05
	9.980468750000018e-01

 238	3.298458157809472e-05
	9.980468750000018e-01

 239	3.300000000000000e-05
	9.980468750000018e-01

 240	3.300010000000000e-05
	9.980468750000018e-01

 241	3.300027499999999e-05
	9.980468750000018e-01

 242	3.300032343749999e-05
	9.980468750000018e-01

 243	3.300040820312500e-05
	9.980468750000018e-01

 244	3.300041662882628e-05
	9.980468750000018e-01

 245	3.300043348022886e-05
	9.980468750000018e-01

 246	3.300046718303401e-05
	9.980468750000018e-01

 247	3.300047104054961e-05
	9.980468750000018e-01

 248	3.300047875558080e-05
	9.980468750000018e-01

 249	3.300049418564318e-05
	9.980468750000018e-01

 250	3.300049626058109e-05
	9.980468750000019e-01

 251	3.300049684571592e-05
	9.980468750000019e-01

 252	3.300049801598558e-05
	9.980468750000018e-01

 253	3.300049822977864e-05
	9.980468750000018e-01

 254	3.300049865736474e-05
	9.980468750000018e-01

 255	3.300049951253694e-05
	9.980468750000018e-01

 256	3.300049968150803e-05
	9.980468750000018e-01

 257	3.300049977199034e-05
	9.980468750000018e-01

 258	3.300049995295495e-05
	9.980468750000018e-01

 259	3.300050000633576e-05
	9.960937500000058e-01

 260	3.300050005977126e-05
	9.941406250000095e-01

 261	3.300050006706289e-05
	9.941406250000095e-01

 262	3.300050007128432e-05
	9.941406250000095e-01

 263	3.300050007694261e-05
	9.941406250000095e-01

 264	3.300050008467270e-05
	9.921875000000134e-01

 265	3.300050010013289e-05
	9.921875000000135e-01

 266	3.300050013067926e-05
	9.902343750000173e-01

 267	3.300050014517137e-05
	9.902343750000173e-01

 268	3.300050015210777e-05
	9.902343750000173e-01

 269	3.300050016266328e-05
	9.902343750000173e-01

 270	3.300050016606960e-05
	9.902343750000173e-01

 271	3.300050017155959e-05
	9.902343750000173e-01

 272	3.300050017803459e-05
	9.882812500000213e-01

 273	3.300050019098459e-05
	9.882812500000213e-01

 274	3.300050020324555e-05
	9.882812500000213e-01

 275	3.300050020920185e-05
	9.882812500000213e-01

 276	3.300050021844269e-05
	9.882812500000213e-01

 277	3.300050022966321e-05
	9.863281250000252e-01

 278	3.300050025210426e-05
	9.863281250000251e-01

 279	3.300050025819799e-05
	9.863281250000251e-01

 280	3.300050026732559e-05
	9.863281250000251e-01

 281	3.300050027029173e-05
	9.863281250000251e-01

 282	3.300050027512303e-05
	9.863281250000251e-01

 283	3.300050028077497e-05
	9.843750000000290e-01

 284	3.300050029207884e-05
	9.843750000000291e-01

 285	3.300050031468659e-05
	9.843750000000291e-01

 286	3.300050035116084e-05
	9.824218750000331e-01

 287	3.300050036419829e-05
	9.824218750000331e-01

 288	3.300050037063002e-05
	9.824218750000331e-01

 289	3.300050038052486e-05
	9.824218750000331e-01

 290	3.300050038368158e-05
	9.824218750000331e-01

 291	3.300050038879724e-05
	9.824218750000331e-01

 292	3.300050039480535e-05
	9.804687500000370e-01

 293	3.300050040682158e-05
	9.804687500000371e-01

 294	3.300050043085404e-05
	9.804687500000371e-01

 295	3.300050043738639e-05
	9.804687500000371e-01

 296	3.300050044706846e-05
	9.804687500000371e-01

 297	3.300050045925477e-05
	9.785156250000409e-01

 298	3.300050048362739e-05
	9.785156250000409e-01

 299	3.300050049211707e-05
	9.785156250000409e-01

 300	3.300050050439936e-05
	9.785156250000409e-01

 301	3.300050050855812e-05
	9.785156250000409e-01

 302	3.300050051515775e-05
	9.785156250000409e-01

 303	3.300050052303481e-05
	9.765625000000449e-01

 304	3.300050053878894e-05
	9.765625000000449e-01

 305	3.300050057029719e-05
	9.765625000000449e-01

 306	3.300050060037469e-05
	9.746093750000487e-01

 307	3.300050060991223e-05
	9.746093750000486e-01

 308	3.300050062898732e-05
	9.746093750000486e-01

 309	3.300050063796287e-05
	9.746093750000486e-01

 310	3.300050065109822e-05
	9.746093750000486e-01

 311	3.300050065551954e-05
	9.746093750000486e-01

 312	3.300050066249253e-05
	9.746093750000486e-01

 313	3.300050067085509e-05
	9.726562500000525e-01

 314	3.300050068758019e-05
	9.726562500000526e-01

 315	3.300050071764464e-05
	9.726562500000526e-01

 316	3.300050072680539e-05
	9.726562500000526e-01

 317	3.300050073971592e-05
	9.726562500000526e-01

 318	3.300050075661323e-05
	9.707031250000565e-01

 319	3.300050079040784e-05
	9.707031250000564e-01

 320	3.300050080219412e-05
	9.707031250000564e-01

 321	3.300050081813553e-05
	9.707031250000564e-01

 322	3.300050082392689e-05
	9.707031250000564e-01

 323	3.300050083282210e-05
	9.707031250000564e-01

 324	3.300050084370945e-05
	9.687500000000603e-01

 325	3.300050086548415e-05
	9.687500000000604e-01

 326	3.300050090903353e-05
	9.687500000000604e-01

 327	3.300050099613230e-05
	9.667968750000644e-01

 328	3.300050101008019e-05
	9.667968750000644e-01

 329	3.300050102467062e-05
	9.667968750000643e-01

 330	3.300050103123188e-05
	9.667968750000643e-01

 331	3.300050104125902e-05
	9.667968750000643e-01

 332	3.300050105357715e-05
	9.648437500000682e-01

 333	3.300050107821340e-05
	9.648437500000683e-01

 334	3.300050112748591e-05
	9.648437500000683e-01

 335	3.300050114099170e-05
	9.648437500000683e-01

 336	3.300050115805825e-05
	9.648437500000683e-01

 337	3.300050118240045e-05
	9.628906250000722e-01

 338	3.300050123108486e-05
	9.628906250000721e-01

 339	3.300050125127206e-05
	9.628906250000721e-01

 340	3.300050127520950e-05
	9.628906250000721e-01

 341	3.300050128525022e-05
	9.628906250000721e-01

 342	3.300050129954072e-05
	9.628906250000721e-01

 343	3.300050131809029e-05
	9.609375000000759e-01

 344	3.300050135518942e-05
	9.609375000000761e-01

 345	3.300050142938770e-05
	9.609375000000761e-01

 346	3.300050149687807e-05
	9.589843750000798e-01

 347	3.300050153613616e-05
	9.589843750000798e-01

 348	3.300050158829202e-05
	9.589843750000798e-01

 349	3.300050161036262e-05
	9.589843750000798e-01

 350	3.300050163580524e-05
	9.589843750000798e-01

 351	3.300050164680720e-05
	9.589843750000798e-01

 352	3.300050166222337e-05
	9.589843750000798e-01

 353	3.300050168247636e-05
	9.570312500000837e-01

 354	3.300050172298234e-05
	9.570312500000838e-01

 355	3.300050180399431e-05
	9.570312500000838e-01

 356	3.300050183943209e-05
	9.570312500000838e-01

 357	3.300050187289235e-05
	9.570312500000838e-01

 358	3.300050193284915e-05
	9.550781250000877e-01

 359	3.300050205276275e-05
	9.550781250000876e-01

 360	3.300050210621469e-05
	9.550781250000876e-01

 361	3.300050214584070e-05
	9.550781250000876e-01

 362	3.300050217789128e-05
	9.550781250000876e-01

 363	3.300050219838428e-05
	9.550781250000876e-01

 364	3.300050222100251e-05
	9.550781250000876e-01

 365	3.300050225691637e-05
	9.531250000000915e-01

 366	3.300050232874410e-05
	9.531250000000916e-01

 367	3.300050247239956e-05
	9.531250000000916e-01

 368	3.300050275971049e-05
	9.511718750000956e-01

 369	3.300050295960664e-05
	9.511718750000956e-01

 370	3.300050318421225e-05
	9.511718750000956e-01

 371	3.300050335682575e-05
	9.511718750000956e-01

 372	3.300050347892143e-05
	9.511718750000956e-01

 373	3.300050356432612e-05
	9.511718750000956e-01

 374	3.300050372468236e-05
	9.492187500000995e-01

 375	3.300050404539481e-05
	9.492187500000996e-01

 376	3.300050468681973e-05
	9.492187500000996e-01

 377	3.300050561078938e-05
	9.492187500000996e-01

 378	3.300050662031844e-05
	9.492187500000996e-01

 379	3.300050793183527e-05
	9.492187500000996e-01

 380	3.300050966484701e-05
	9.492187500000996e-01

 381	3.300051249846793e-05
	9.492187500000996e-01

 382	3.300051729323134e-05
	9.492187500000996e-01

 383	3.300052688275816e-05
	9.492187500000996e-01

 384	3.300054606181178e-05
	9.492187500000996e-01

 385	3.300058441991905e-05
	9.492187500000996e-01

 386	3.300066113613358e-05
	9.492187500000996e-01

 387	3.300081456856264e-05
	9.492187500000996e-01

 388	3.300100000000000e-05
	9.492187500000996e-01

 389	3.300103068648581e-05
	9.492187500000996e-01

 390	3.300109205945743e-05
	9.492187500000996e-01

 391	3.300121480540068e-05
	9.492187500000996e-01

 392	3.300146029728717e-05
	9.492187500000996e-01

 393	3.300195128106017e-05
	9.492187500000996e-01

 394	3.300293324860615e-05
	9.492187500000996e-01

 395	3.300489718369811e-05
	9.492187500000996e-01

 396	3.300882505388203e-05
	9.492187500000996e-01

 397	3.301668079424987e-05
	9.492187500000996e-01

 398	3.303239227498555e-05
	9.492187500000996e-01

 399	3.305739227498555e-05
	9.492187500000996e-01

 400	3.308239227498555e-05
	9.492187500000996e-01

 401	3.310739227498555e-05
	9.492187500000996e-01

 402	3.313239227498555e-05
	9.492187500000996e-01

 403	3.315739227498555e-05
	9.492187500000996e-01

 404	3.318239227498555e-05
	9.492187500000996e-01

 405	3.320739227498555e-05
	9.492187500000996e-01

 406	3.323239227498556e-05
	9.492187500000996e-01

 407	3.325739227498556e-05
	9.492187500000996e-01

 408	3.328239227498556e-05
	9.492187500000996e-01

 409	3.330739227498556e-05
	9.492187500000996e-01

 410	3.333239227498556e-05
	9.492187500000996e-01

 411	3.335739227498556e-05
	9.492187500000996e-01

 412	3.338239227498556e-05
	9.492187500000996e-01

 413	3.340100000000000e-05
	9.492187500000996e-01

 414	3.340110000000000e-05
	9.492187500000996e-01

 415	3.340127500000000e-05
	9.492187500000996e-01

 416	3.340132343750000e-05
	9.492187500000996e-01

 417	3.340140820312500e-05
	9.492187500000996e-01

 418	3.340142121344521e-05
	9.492187500000996e-01

 419	3.340144723408562e-05
	9.492187500000996e-01

 420	3.340147277756077e-05
	9.492187500000996e-01

 421	3.340147819620513e-05
	9.492187500000996e-01

 422	3.340148903349384e-05
	9.492187500000996e-01

 423	3.340149137970444e-05
	9.492187500000996e-01

 424	3.340149607212565e-05
	9.492187500000996e-01

 425	3.340149714273343e-05
	9.492187500000996e-01

 426	3.340149928394898e-05
	9.492187500000996e-01

 427	3.340149982118296e-05
	9.492187500000996e-01

 428	3.340150008713684e-05
	9.492187500000996e-01

 429	3.340150037409676e-05
	9.492187500000996e-01

 430	3.340150046859434e-05
	9.492187500000996e-01

 431	3.340150063821461e-05
	9.492187500000996e-01

 432	3.340150097745513e-05
	9.492187500000996e-01

 433	3.340150134264009e-05
	9.492187500000996e-01

 434	3.340150176703373e-05
	9.492187500000996e-01

 435	3.340150219742987e-05
	9.492187500000996e-01

 436	3.340150272353424e-05
	9.492187500000996e-01

 437	3.340150329893762e-05
	9.492187500000996e-01

 438	3.340150401884785e-05
	9.492187500000996e-01

 439	3.340150484863514e-05
	9.492187500000996e-01

 440	3.340150593772488e-05
	9.492187500000996e-01

 441	3.340150731240885e-05
	9.492187500000996e-01

 442	3.340150932291881e-05
	9.492187500000996e-01

 443	3.340151234804194e-05
	9.492187500000996e-01

 444	3.340151816736577e-05
	9.492187500000996e-01

 445	3.340152980601341e-05
	9.492187500000996e-01

 446	3.340155308330869e-05
	9.492187500000996e-01

 447	3.340159963789924e-05
	9.492187500000996e-01

 448	3.340169274708036e-05
	9.492187500000996e-01

 449	3.340187896544261e-05
	9.492187500000996e-01

 450	3.340200000000000e-05
	9.492187500000996e-01

 451	3.340203724367245e-05
	9.492187500000996e-01

 452	3.340211173101734e-05
	9.492187500000996e-01

 453	3.340226070570714e-05
	9.492187500000996e-01

 454	3.340255865508673e-05
	9.492187500000996e-01

 455	3.340315455384590e-05
	9.492187500000996e-01

 456	3.340434635136424e-05
	9.492187500000996e-01

 457	3.340672994640092e-05
	9.492187500000996e-01

 458	3.341149713647428e-05
	9.492187500000996e-01

 459	3.342103151662100e-05
	9.492187500000996e-01

 460	3.344010027691446e-05
	9.492187500000996e-01

 461	3.346510027691446e-05
	9.492187500000996e-01

 462	3.349010027691446e-05
	9.492187500000996e-01

 463	3.351510027691446e-05
	9.492187500000996e-01

 464	3.354010027691446e-05
	9.492187500000996e-01

 465	3.356510027691446e-05
	9.492187500000996e-01

 466	3.359010027691446e-05
	9.492187500000996e-01

 467	3.361510027691446e-05
	9.492187500000996e-01

 468	3.364010027691446e-05
	9.492187500000996e-01

 469	3.366510027691446e-05
	9.492187500000996e-01

 470	3.369010027691446e-05
	9.492187500000996e-01

 471	3.371510027691446e-05
	9.492187500000996e-01

 472	3.374010027691446e-05
	9.492187500000996e-01

 473	3.376510027691446e-05
	9.492187500000996e-01

 474	3.379010027691446e-05
	9.492187500000996e-01

 475	3.381510027691446e-05
	9.492187500000996e-01

 476	3.384010027691447e-05
	9.492187500000996e-01

 477	3.386510027691447e-05
	9.492187500000996e-01

 478	3.389010027691447e-05
	9.492187500000996e-01

 479	3.391510027691447e-05
	9.492187500000996e-01

 480	3.394010027691447e-05
	9.492187500000996e-01

 481	3.396510027691447e-05
	9.492187500000996e-01

 482	3.399010027691447e-05
	9.492187500000996e-01

 483	3.399999999999999e-05
	9.492187500000996e-01

 484	3.400009999999999e-05
	9.492187500000996e-01

 485	3.400027500000000e-05
	9.492187500000996e-01

 486	3.400032343750000e-05
	9.492187500000996e-01

 487	3.400040820312499e-05
	9.492187500000996e-01

 488	3.400041645963468e-05
	9.492187500000995e-01

 489	3.400043297265406e-05
	9.492187500000996e-01

 490	3.400046599869281e-05
	9.492187500000996e-01

 491	3.400046977985690e-05
	9.492187500000995e-01

 492	3.400047734218509e-05
	9.492187500000996e-01

 493	3.400049246684146e-05
	9.492187500000996e-01

 494	3.400049451975390e-05
	9.492187500000995e-01

 495	3.400049862557879e-05
	9.492187500000996e-01

 496	3.400049922746813e-05
	9.492187500000995e-01

 497	3.400049944369763e-05
	9.492187500000995e-01

 498	3.400049987615661e-05
	9.492187500000996e-01

 499	3.400049997962259e-05
	9.492187500000995e-01

 500	3.400049999530354e-05
	9.492187500000996e-01

 501	3.400050000418016e-05
	9.492187500000996e-01

 502	3.400050002193340e-05
	9.472656250001034e-01

 503	3.400050002409003e-05
	9.472656250001034e-01

 504	3.400050002840328e-05
	9.472656250001034e-01

 505	3.400050003702977e-05
	9.472656250001034e-01

 506	3.400050004156145e-05
	9.472656250001034e-01

 507	3.400050004880575e-05
	9.472656250001034e-01

 508	3.400050005102306e-05
	9.472656250001034e-01

 509	3.400050005469405e-05
	9.472656250001034e-01

 510	3.400050005893508e-05
	9.453125000001074e-01

 511	3.400050006741715e-05
	9.453125000001074e-01

 512	3.400050008438128e-05
	9.453125000001074e-01

 513	3.400050010539379e-05
	9.433593750001112e-01

 514	3.400050014741881e-05
	9.414062500001150e-01

 515	3.400050015854852e-05
	9.414062500001151e-01

 516	3.400050017331115e-05
	9.414062500001151e-01

 517	3.400050017873597e-05
	9.414062500001151e-01

 518	3.400050018713872e-05
	9.414062500001151e-01

 519	3.400050019735650e-05
	9.394531250001190e-01

 520	3.400050021779206e-05
	9.394531250001189e-01

 521	3.400050022377435e-05
	9.394531250001189e-01

 522	3.400050023280670e-05
	9.394531250001189e-01

 523	3.400050023572192e-05
	9.394531250001189e-01

 524	3.400050024047499e-05
	9.394531250001189e-01

 525	3.400050024603118e-05
	9.375000000001228e-01

 526	3.400050025714356e-05
	9.375000000001229e-01

 527	3.400050027936833e-05
	9.375000000001229e-01

 528	3.400050032381786e-05
	9.355468750001268e-01

 529	3.400050041271692e-05
	9.316406250001347e-01

 530	3.400050043595399e-05
	9.316406250001346e-01

 531	3.400050044460535e-05
	9.316406250001346e-01

 532	3.400050045714422e-05
	9.316406250001346e-01

 533	3.400050046138800e-05
	9.316406250001346e-01

 534	3.400050046810949e-05
	9.316406250001346e-01

 535	3.400050047614403e-05
	9.296875000001384e-01

 536	3.400050049221310e-05
	9.296875000001386e-01

 537	3.400050051812833e-05
	9.296875000001386e-01

 538	3.400050054855757e-05
	9.277343750001423e-01

 539	3.400050055485610e-05
	9.277343750001423e-01

 540	3.400050056745316e-05
	9.277343750001423e-01

 541	3.400050058608796e-05
	9.277343750001423e-01

 542	3.400050059244366e-05
	9.277343750001423e-01

 543	3.400050060205297e-05
	9.277343750001423e-01

 544	3.400050061395934e-05
	9.257812500001462e-01

 545	3.400050063777208e-05
	9.257812500001463e-01

 546	3.400050065074687e-05
	9.257812500001463e-01

 547	3.400050066863111e-05
	9.257812500001463e-01

 548	3.400050069241568e-05
	9.238281250001502e-01

 549	3.400050072107154e-05
	9.238281250001501e-01

 550	3.400050073315265e-05
	9.238281250001501e-01

 551	3.400050074971069e-05
	9.238281250001501e-01

 552	3.400050075567510e-05
	9.238281250001501e-01

 553	3.400050076479808e-05
	9.238281250001501e-01

 554	3.400050077600024e-05
	9.218750000001540e-01

 555	3.400050079840456e-05
	9.218750000001541e-01

 556	3.400050084321320e-05
	9.218750000001541e-01

 557	3.400050089589053e-05
	9.199218750001581e-01

 558	3.400050090633287e-05
	9.199218750001581e-01

 559	3.400050092721755e-05
	9.199218750001581e-01

 560	3.400050093643021e-05
	9.199218750001581e-01

 561	3.400050094979745e-05
	9.199218750001581e-01

 562	3.400050096689013e-05
	9.179687500001620e-01

 563	3.400050100107548e-05
	9.179687500001621e-01

 564	3.400050102065500e-05
	9.179687500001621e-01

 565	3.400050104508223e-05
	9.179687500001621e-01

 566	3.400050108016965e-05
	9.160156250001659e-01

 567	3.400050112379738e-05
	9.160156250001659e-01

 568	3.400050114274685e-05
	9.160156250001659e-01

 569	3.400050116584432e-05
	9.160156250001659e-01

 570	3.400050117527433e-05
	9.160156250001659e-01

 571	3.400050118882581e-05
	9.160156250001659e-01

 572	3.400050120628587e-05
	9.140625000001699e-01

 573	3.400050124120599e-05
	9.140625000001699e-01

 574	3.400050129597956e-05
	9.140625000001699e-01

 575	3.400050136127315e-05
	9.121093750001737e-01

 576	3.400050138612987e-05
	9.121093750001736e-01

 577	3.400050143584332e-05
	9.121093750001736e-01

 578	3.400050145573804e-05
	9.121093750001736e-01

 579	3.400050147931721e-05
	9.121093750001736e-01

 580	3.400050148919749e-05
	9.121093750001736e-01

 581	3.400050150330147e-05
	9.121093750001736e-01

 582	3.400050152156689e-05
	9.101562500001775e-01

 583	3.400050155809772e-05
	9.101562500001776e-01

 584	3.400050163115938e-05
	9.101562500001776e-01

 585	3.400050165755695e-05