Title: ** sch_path: /home/tare/desktop/analog design/lab3_part3.sch
Date: Mon Feb  5 16:27:55  2024
Plotname: Transient Analysis
Flags: real
No. Variables: 2
No. Points: 30209
Variables:
	0	time	time
	1	v(vsh)	voltage
Values:
 0	2.561687999999981e-05
	-1.913203913961325e-05

 1	2.564187999999981e-05
	-1.916594562079155e-05

 2	2.566687999999981e-05
	-1.919985209797304e-05

 3	2.569187999999981e-05
	-1.923375856938137e-05

 4	2.571687999999981e-05
	-1.926766503501653e-05

 5	2.574187999999981e-05
	-1.930157149576672e-05

 6	2.576687999999981e-05
	-1.933547795074375e-05

 7	2.579187999999981e-05
	-1.936938439994762e-05

 8	2.581687999999981e-05
	-1.940329084426651e-05

 9	2.584187999999981e-05
	-1.943719728370041e-05

 10	2.586687999999981e-05
	-1.947110371736116e-05

 11	2.589187999999981e-05
	-1.950501014658101e-05

 12	2.590099999999999e-05
	-1.951737921057628e-05

 13	2.590109999999999e-05
	-1.951751483675324e-05

 14	2.590130000000000e-05
	-1.951778608955124e-05

 15	2.590170000000000e-05
	-1.951832859159452e-05

 16	2.590199999999999e-05
	-1.951873546879312e-05

 17	2.590206249999999e-05
	-1.951882023565332e-05

 18	2.590218749999999e-05
	-1.951898976715327e-05

 19	2.590243749999999e-05
	-1.951932883237362e-05

 20	2.590293749999999e-05
	-1.952000696103795e-05

 21	2.590393749999999e-05
	-1.952136321659026e-05

 22	2.590593749999998e-05
	-1.952407572858306e-05

 23	2.590993749999997e-05
	-1.952950075434501e-05

 24	2.591793749999994e-05
	-1.954035080986571e-05

 25	2.593393749999989e-05
	-1.956205092001895e-05

 26	2.595893749999989e-05
	-1.959595733502795e-05

 27	2.598393749999989e-05
	-1.962986374515197e-05

 28	2.600000000000000e-05
	-1.965164861106317e-05

 29	2.600010000000000e-05
	-1.965178423679603e-05

 30	2.600030000000000e-05
	-1.965205528664526e-05

 31	2.600070000000000e-05
	-1.965250255198114e-05

 32	2.600100000000000e-05
	-1.965266803916066e-05

 33	2.600103999943007e-05
	-1.965267409831384e-05

 34	2.600111999829022e-05
	-1.965268188275360e-05

 35	2.600127999601052e-05
	-1.965268103498730e-05

 36	2.600159999145112e-05
	-1.965265884562584e-05

 37	2.600197449923334e-05
	-1.965262972891679e-05

 38	2.600261880574466e-05
	-1.965258947400628e-05

 39	2.600385340681869e-05
	-1.965253614422124e-05

 40	2.600632260896676e-05
	-1.965248406587961e-05

 41	2.601126101326290e-05
	-1.965245960811046e-05

 42	2.601871414279456e-05
	-1.965246019164368e-05

 43	2.603029313258348e-05
	-1.965245976087715e-05

 44	2.605345111216133e-05
	-1.965245941537574e-05

 45	2.607845111216134e-05
	-1.965245884738565e-05

 46	2.610345111216134e-05
	-1.965245841306640e-05

 47	2.612845111216134e-05
	-1.965245787927117e-05

 48	2.615345111216134e-05
	-1.965245742185928e-05

 49	2.617845111216134e-05
	-1.965245690360717e-05

 50	2.620345111216134e-05
	-1.965245643509306e-05

 51	2.622845111216134e-05
	-1.965245592483456e-05

 52	2.625345111216134e-05
	-1.965245545054728e-05

 53	2.627845111216134e-05
	-1.965245494472967e-05

 54	2.630345111216134e-05
	-1.965245446688968e-05

 55	2.632845111216134e-05
	-1.965245396329252e-05

 56	2.635345111216134e-05
	-1.965245348456435e-05

 57	2.636100000000000e-05
	-1.965245332558041e-05

 58	2.636110000000000e-05
	-1.965245332602450e-05

 59	2.636130000000000e-05
	-1.965245332558041e-05

 60	2.636170000000000e-05
	-1.965245331803089e-05

 61	2.636200000000000e-05
	-1.965245331359000e-05

 62	2.636207999999999e-05
	-1.965245331136956e-05

 63	2.636224000000000e-05
	-1.965245330826093e-05

 64	2.636255999999999e-05
	-1.965245330115550e-05

 65	2.636320000000000e-05
	-1.965245329138554e-05

 66	2.636447999999999e-05
	-1.965245326873699e-05

 67	2.636703999999999e-05
	-1.965245321988718e-05

 68	2.637215999999998e-05
	-1.965245312396391e-05

 69	2.638239999999997e-05
	-1.965245293167328e-05

 70	2.640100000000000e-05
	-1.965245258128689e-05

 71	2.640110000000000e-05
	-1.965245145463257e-05

 72	2.640130000000000e-05
	-1.965244648127751e-05

 73	2.640156284337568e-05
	-1.965243479284950e-05

 74	2.640185702631364e-05
	-1.965241963564068e-05

 75	2.640200000000000e-05
	-1.965241207724233e-05

 76	2.640204022987706e-05
	-1.965240993984096e-05

 77	2.640212068963118e-05
	-1.965240566637050e-05

 78	2.640228160913941e-05
	-1.965239711587685e-05

 79	2.640260344815589e-05
	-1.965238001711000e-05

 80	2.640324712618885e-05
	-1.965234582090858e-05

 81	2.640453448225477e-05
	-1.965227743028208e-05

 82	2.640710919438661e-05
	-1.965214065124954e-05

 83	2.641225861865027e-05
	-1.965186709229627e-05

 84	2.642255746717761e-05
	-1.965131997483383e-05

 85	2.644100000000000e-05
	-1.965034023987400e-05

 86	2.644110000000000e-05
	-1.965033492767887e-05

 87	2.644130000000000e-05
	-1.965032430373270e-05

 88	2.644170000000000e-05
	-1.965034336759430e-05

 89	2.644200000000000e-05
	-1.965047064356185e-05

 90	2.644205325239224e-05
	-1.965051427310627e-05

 91	2.644215975717673e-05
	-1.965061205666530e-05

 92	2.644237276674571e-05
	-1.965085168986747e-05

 93	2.644279878588367e-05
	-1.965140274506894e-05

 94	2.644321473558987e-05
	-1.965196639330813e-05

 95	2.644386868183663e-05
	-1.965285330385314e-05

 96	2.644484905682566e-05
	-1.965418295002408e-05

 97	2.644680980680373e-05
	-1.965684223170783e-05

 98	2.645073130675987e-05
	-1.966216079818395e-05

 99	2.645857430667215e-05
	-1.967279792536303e-05

 100	2.647426030649672e-05
	-1.969407218016528e-05

 101	2.649926030649672e-05
	-1.972797861338194e-05

 102	2.650000000000000e-05
	-1.972898182778238e-05

 103	2.650010000000000e-05
	-1.972911745395933e-05

 104	2.650030000000000e-05
	-1.972938870453689e-05

 105	2.650070000000000e-05
	-1.972993120702426e-05

 106	2.650100000000000e-05
	-1.973033808422286e-05

 107	2.650107999999999e-05
	-1.973044658454270e-05

 108	2.650124000000000e-05
	-1.973066358562647e-05

 109	2.650155999999999e-05
	-1.973109758734992e-05

 110	2.650220000000000e-05
	-1.973196559124091e-05

 111	2.650347999999999e-05
	-1.973370160079924e-05

 112	2.650603999999999e-05
	-1.973717361858363e-05

 113	2.651115999999998e-05
	-1.974411765548467e-05

 114	2.652139999999997e-05
	-1.975800572573405e-05

 115	2.654187999999995e-05
	-1.978578186667690e-05

 116	2.656687999999995e-05
	-1.981968828612679e-05

 117	2.659187999999995e-05
	-1.985359469980352e-05

 118	2.661687999999995e-05
	-1.988750110726301e-05

 119	2.664187999999995e-05
	-1.992140750939342e-05

 120	2.666687999999995e-05
	-1.995531390663885e-05

 121	2.669187999999995e-05
	-1.998922029811112e-05

 122	2.671687999999995e-05
	-2.002312668469841e-05

 123	2.674187999999995e-05
	-2.005703306506845e-05

 124	2.676687999999995e-05
	-2.009093944188578e-05

 125	2.679187999999995e-05
	-2.012484581337404e-05

 126	2.681687999999995e-05
	-2.015875217997731e-05

 127	2.684187999999995e-05
	-2.019265854080743e-05

 128	2.686687999999995e-05
	-2.022656489586439e-05

 129	2.689187999999995e-05
	-2.026047124603636e-05

 130	2.690100000000000e-05
	-2.027284028116583e-05

 131	2.690110000000000e-05
	-2.027297590645460e-05

 132	2.690130000000000e-05
	-2.027324715703216e-05

 133	2.690170000000000e-05
	-2.027378965863136e-05

 134	2.690199999999999e-05
	-2.027419653405360e-05

 135	2.690206250000000e-05
	-2.027428130002562e-05

 136	2.690218749999999e-05
	-2.027445083152557e-05

 137	2.690243749999999e-05
	-2.027478989408138e-05

 138	2.690293749999999e-05
	-2.027546801919300e-05

 139	2.690393749999999e-05
	-2.027682427296895e-05

 140	2.690593749999998e-05
	-2.027953678185312e-05

 141	2.690993749999997e-05
	-2.028496179784511e-05

 142	2.691793749999994e-05
	-2.029581182672047e-05

 143	2.693393749999989e-05
	-2.031751188225073e-05

 144	2.695893749999989e-05
	-2.035141821687958e-05

 145	2.698393749999990e-05
	-2.038532454706754e-05

 146	2.700000000000000e-05
	-2.040710936190848e-05

 147	2.700010000000000e-05
	-2.040724498675317e-05

 148	2.700030000000000e-05
	-2.040751603704649e-05

 149	2.700070000000000e-05
	-2.040796330016192e-05

 150	2.700100000000000e-05
	-2.040812878689735e-05

 151	2.700103999938548e-05
	-2.040813484560644e-05

 152	2.700111999815645e-05
	-2.040814263004620e-05

 153	2.700127999569838e-05
	-2.040814178050354e-05

 154	2.700159999078224e-05
	-2.040811959114208e-05

 155	2.700197449810792e-05
	-2.040809047310077e-05

 156	2.700261880372521e-05
	-2.040805021685799e-05

 157	2.700385340229703e-05
	-2.040799688529660e-05

 158	2.700632259944066e-05
	-2.040794480695496e-05

 159	2.701126099372791e-05
	-2.040792034740946e-05

 160	2.701871412196433e-05
	-2.040792092339316e-05

 161	2.703029309599527e-05
	-2.040792048374485e-05

 162	2.705345104405715e-05
	-2.040792012003578e-05

 163	2.707845104405715e-05
	-2.040791953294985e-05

 164	2.710345104405715e-05
	-2.040791907997885e-05

 165	2.712845104405715e-05
	-2.040791852753188e-05

 166	2.715345104405715e-05
	-2.040791805146824e-05

 167	2.717845104405716e-05
	-2.040791751500848e-05

 168	2.720345104405716e-05
	-2.040791702828670e-05

 169	2.722845104405716e-05
	-2.040791649893237e-05

 170	2.725345104405716e-05
	-2.040791600554925e-05

 171	2.727845104405716e-05
	-2.040791548019172e-05

 172	2.730345104405716e-05
	-2.040791498236771e-05

 173	2.732845104405716e-05
	-2.040791445967471e-05

 174	2.735345104405716e-05
	-2.040791396318298e-05

 175	2.736100000000000e-05
	-2.040791379709361e-05

 176	2.736110000000000e-05
	-2.040791379798179e-05

 177	2.736130000000000e-05
	-2.040791379620543e-05

 178	2.736170000000000e-05
	-2.040791378821183e-05

 179	2.736200000000000e-05
	-2.040791378199458e-05

 180	2.736208000000000e-05
	-2.040791378021822e-05

 181	2.736224000000000e-05
	-2.040791377622142e-05

 182	2.736256000000000e-05
	-2.040791376911599e-05

 183	2.736320000000000e-05
	-2.040791375668149e-05

 184	2.736447999999999e-05
	-2.040791373181250e-05

 185	2.736703999999999e-05
	-2.040791368163042e-05

 186	2.737215999999998e-05
	-2.040791358037808e-05

 187	2.738239999999997e-05
	-2.040791338142611e-05

 188	2.740100000000000e-05
	-2.040791301816114e-05

 189	2.740110000000000e-05
	-2.040791189061864e-05

 190	2.740130000000000e-05
	-2.040790691548722e-05

 191	2.740156284293620e-05
	-2.040789522528286e-05

 192	2.740185702557574e-05
	-2.040788006629768e-05

 193	2.740200000000000e-05
	-2.040787250834342e-05

 194	2.740204023004647e-05
	-2.040787037005387e-05

 195	2.740212069013941e-05
	-2.040786609525114e-05

 196	2.740228161032529e-05
	-2.040785754564567e-05

 197	2.740260345069706e-05
	-2.040784044776700e-05

 198	2.740324713144059e-05
	-2.040780624978922e-05

 199	2.740453449292766e-05
	-2.040773785694228e-05

 200	2.740710921590180e-05
	-2.040760107568929e-05

 201	2.741225866185008e-05
	-2.040732751140695e-05

 202	2.742255755374664e-05
	-2.040678038683907e-05

 203	2.744100000000000e-05
	-2.040580064788244e-05

 204	2.744110000000000e-05
	-2.040579533613140e-05

 205	2.744130000000000e-05
	-2.040578471307342e-05

 206	2.744170000000000e-05
	-2.040580377693502e-05

 207	2.744200000000000e-05
	-2.040593105157029e-05

 208	2.744205325235560e-05
	-2.040597468200289e-05

 209	2.744215975706680e-05
	-2.040607246467374e-05

 210	2.744237276648921e-05
	-2.040631209654364e-05

 211	2.744279878533404e-05
	-2.040686314863649e-05

 212	2.744321473456767e-05
	-2.040742679465524e-05

 213	2.744386867976032e-05
	-2.040831370031526e-05

 214	2.744484905238032e-05
	-2.040964333893669e-05

 215	2.744680979762031e-05
	-2.041230261040639e-05

 216	2.745073128810028e-05
	-2.041762115334578e-05

 217	2.745857426906023e-05
	-2.042825823433958e-05

 218	2.747426023098012e-05
	-2.044953239677127e-05

 219	2.749926023098012e-05
	-2.048343876337455e-05

 220	2.750000000000000e-05
	-2.048444207902733e-05

 221	2.750010000000000e-05
	-2.048457770431611e-05

 222	2.750030000000000e-05
	-2.048484895533775e-05

 223	2.750070000000000e-05
	-2.048539145693695e-05

 224	2.750100000000000e-05
	-2.048579833324737e-05

 225	2.750108000000000e-05
	-2.048590683312312e-05

 226	2.750124000000000e-05
	-2.048612383331871e-05

 227	2.750155999999999e-05
	-2.048655783459807e-05

 228	2.750220000000000e-05
	-2.048742583848906e-05

 229	2.750347999999999e-05
	-2.048916184493876e-05

 230	2.750603999999999e-05
	-2.049263385561773e-05

 231	2.751115999999998e-05
	-2.049957787741974e-05

 232	2.752139999999997e-05
	-2.051346592368830e-05

 233	2.754187999999995e-05
	-2.054124201134044e-05

 234	2.756687999999995e-05
	-2.057514836462104e-05

 235	2.759187999999995e-05
	-2.060905471079622e-05

 236	2.761687999999995e-05
	-2.064296105208641e-05

 237	2.764187999999995e-05
	-2.067686738804753e-05

 238	2.766687999999995e-05
	-2.071077372001184e-05

 239	2.769187999999995e-05
	-2.074468004620300e-05

 240	2.771687999999995e-05
	-2.077858636662100e-05

 241	2.774187999999995e-05
	-2.081249268215402e-05

 242	2.776687999999995e-05
	-2.084639899324614e-05

 243	2.779187999999995e-05
	-2.088030529856510e-05

 244	2.781687999999995e-05
	-2.091421159811091e-05

 245	2.784187999999995e-05
	-2.094811789188356e-05

 246	2.786687999999995e-05
	-2.098202418121531e-05

 247	2.789187999999995e-05
	-2.101593046388572e-05

 248	2.790100000000000e-05
	-2.102829947459028e-05

 249	2.790110000000000e-05
	-2.102843509987906e-05

 250	2.790130000000000e-05
	-2.102870635001253e-05

 251	2.790170000000000e-05
	-2.102924884939128e-05

 252	2.790199999999999e-05
	-2.102965572525761e-05

 253	2.790206250000000e-05
	-2.102974049034145e-05

 254	2.790218749999999e-05
	-2.102991002139731e-05

 255	2.790243749999999e-05
	-2.103024908262086e-05

 256	2.790293749999999e-05
	-2.103092720950883e-05

 257	2.790393749999999e-05
	-2.103228346195252e-05

 258	2.790593749999998e-05
	-2.103499596195491e-05

 259	2.790993749999997e-05
	-2.104042096817693e-05

 260	2.791793749999994e-05
	-2.105127097795645e-05

 261	2.793393749999989e-05
	-2.107297099307459e-05

 262	2.795893749999990e-05
	-2.110687726375460e-05

 263	2.798393749999990e-05
	-2.114078352821736e-05

 264	2.800000000000000e-05
	-2.116256830042573e-05

 265	2.800010000000000e-05
	-2.116270392571451e-05

 266	2.800030000000000e-05
	-2.116297497378739e-05

 267	2.800070000000000e-05
	-2.116342223690282e-05

 268	2.800100000000000e-05
	-2.116358772319415e-05

 269	2.800103999935038e-05
	-2.116359378145916e-05

 270	2.800111999805114e-05
	-2.116360156456665e-05

 271	2.800127999545267e-05
	-2.116360071546808e-05

 272	2.800159999025572e-05
	-2.116357852655071e-05

 273	2.800197449722214e-05
	-2.116354940762122e-05

 274	2.800261880213537e-05
	-2.116350915226661e-05

 275	2.800385339873736e-05
	-2.116345581804069e-05

 276	2.800632259194136e-05
	-2.116340373792269e-05

 277	2.801126097834935e-05
	-2.116337927526857e-05

 278	2.801871410556709e-05
	-2.116337984681138e-05

 279	2.803029306718718e-05
	-2.116337939916946e-05

 280	2.805345099042738e-05
	-2.116337901991727e-05

 281	2.807845099042738e-05
	-2.116337841417959e-05

 282	2.810345099042738e-05
	-2.116337794122458e-05

 283	2.812845099042738e-05
	-2.116337736790541e-05

 284	2.815345099042738e-05
	-2.116337687274594e-05

 285	2.817845099042738e-05
	-2.116337631630216e-05

 286	2.820345099042738e-05
	-2.116337581092864e-05

 287	2.822845099042738e-05
	-2.116337526292256e-05

 288	2.825345099042738e-05
	-2.116337475044361e-05

 289	2.827845099042739e-05
	-2.116337420643433e-05

 290	2.830345099042739e-05
	-2.116337368951449e-05

 291	2.832845099042739e-05
	-2.116337314772565e-05

 292	2.835345099042739e-05
	-2.116337263169399e-05

 293	2.836100000000000e-05
	-2.116337246071964e-05

 294	2.836110000000000e-05
	-2.116337246116373e-05

 295	2.836130000000000e-05
	-2.116337246027555e-05

 296	2.836170000000000e-05
	-2.116337245228195e-05

 297	2.836200000000000e-05
	-2.116337244695288e-05

 298	2.836208000000000e-05
	-2.116337244517652e-05

 299	2.836224000000000e-05
	-2.116337244162381e-05

 300	2.836256000000000e-05
	-2.116337243451838e-05

 301	2.836320000000000e-05
	-2.116337242297206e-05

 302	2.836447999999999e-05
	-2.116337239854715e-05

 303	2.836703999999999e-05
	-2.116337234658872e-05

 304	2.837215999999998e-05
	-2.116337224133957e-05

 305	2.838239999999997e-05
	-2.116337203261764e-05

 306	2.840100000000000e-05
	-2.116337165425364e-05

 307	2.840110000000000e-05
	-2.116337052759931e-05

 308	2.840130000000000e-05
	-2.116336555202381e-05

 309	2.840156284259028e-05
	-2.116335386226353e-05

 310	2.840185702499493e-05
	-2.116333870461062e-05

 311	2.840200000000000e-05
	-2.116333114710045e-05

 312	2.840204023017982e-05
	-2.116332900969908e-05

 313	2.840212069053946e-05
	-2.116332473489635e-05

 314	2.840228161125874e-05
	-2.116331618573497e-05

 315	2.840260345269731e-05
	-2.116329908918857e-05

 316	2.840324713557444e-05
	-2.116326489298714e-05

 317	2.840453450132871e-05
	-2.116319649969611e-05

 318	2.840710923283724e-05
	-2.116305971533450e-05

 319	2.841225869585430e-05
	-2.116278614749945e-05

 320	2.842255762188842e-05
	-2.116223901360570e-05

 321	2.844100000000000e-05
	-2.116125926443502e-05

 322	2.844110000000000e-05
	-2.116125395268398e-05

 323	2.844130000000000e-05
	-2.116124332873781e-05

 324	2.844170000000000e-05
	-2.116126239259941e-05

 325	2.844200000000000e-05
	-2.116138966545833e-05

 326	2.844205325232677e-05
	-2.116143329500275e-05

 327	2.844215975698032e-05
	-2.116153107767360e-05

 328	2.844237276628742e-05
	-2.116177070732306e-05

 329	2.844279878490162e-05
	-2.116232175897181e-05

 330	2.844321473376341e-05
	-2.116288540321420e-05

 331	2.844386867812669e-05
	-2.116377230576560e-05

 332	2.844484904888269e-05
	-2.116510194083432e-05

 333	2.844680979039469e-05
	-2.116776119942543e-05

 334	2.845073127341870e-05
	-2.117307972193672e-05

 335	2.845857423946671e-05
	-2.118371676695929e-05

 336	2.847426017156274e-05
	-2.120499085522809e-05

 337	2.849926017156274e-05
	-2.123889716498795e-05

 338	2.850000000000000e-05
	-2.123990055924452e-05

 339	2.850010000000000e-05
	-2.124003618408921e-05

 340	2.850030000000000e-05
	-2.124030743466676e-05

 341	2.850070000000000e-05
	-2.124084993671005e-05

 342	2.850100000000000e-05
	-2.124125681213229e-05

 343	2.850108000000000e-05
	-2.124136531334031e-05

 344	2.850124000000000e-05
	-2.124158231264772e-05

 345	2.850156000000000e-05
	-2.124201631259481e-05

 346	2.850220000000000e-05
	-2.124288431382126e-05

 347	2.850347999999999e-05
	-2.124462031760643e-05

 348	2.850603999999999e-05
	-2.124809232340041e-05

 349	2.851115999999998e-05
	-2.125503633365611e-05

 350	2.852139999999997e-05
	-2.126892435505567e-05

 351	2.854187999999995e-05
	-2.129670039563436e-05

 352	2.856687999999995e-05
	-2.133060669251563e-05

 353	2.859187999999995e-05
	-2.136451298362374e-05

 354	2.861687999999995e-05
	-2.139841926762642e-05

 355	2.864187999999995e-05
	-2.143232554852048e-05

 356	2.866687999999995e-05
	-2.146623182452956e-05

 357	2.869187999999995e-05
	-2.150013809520956e-05

 358	2.871687999999995e-05
	-2.153404435967232e-05

 359	2.874187999999995e-05
	-2.156795061791783e-05

 360	2.876687999999995e-05
	-2.160185687172245e-05

 361	2.879187999999995e-05
	-2.163576312108617e-05

 362	2.881687999999995e-05
	-2.166966936512082e-05

 363	2.884187999999995e-05
	-2.170357560338232e-05

 364	2.886687999999995e-05
	-2.173748183542656e-05

 365	2.889187999999995e-05
	-2.177138806169765e-05

 366	2.890100000000000e-05
	-2.178375705286228e-05

 367	2.890110000000000e-05
	-2.178389267815106e-05

 368	2.890130000000000e-05
	-2.178416392784044e-05

 369	2.890170000000000e-05
	-2.178470642544283e-05

 370	2.890200000000000e-05
	-2.178511330042099e-05

 371	2.890206250000000e-05
	-2.178519806639301e-05

 372	2.890218749999999e-05
	-2.178536759789296e-05

 373	2.890243750000000e-05
	-2.178570666089286e-05

 374	2.890293749999999e-05
	-2.178638478245176e-05

 375	2.890393749999999e-05
	-2.178774103223091e-05

 376	2.890593749999998e-05
	-2.179045353178921e-05

 377	2.890993749999997e-05
	-2.179587852557674e-05

 378	2.891793749999994e-05
	-2.180672851626042e-05

 379	2.893393749999990e-05
	-2.182842849407507e-05

 380	2.895893749999990e-05
	-2.186233470702348e-05

 381	2.898393749999990e-05
	-2.189624091419873e-05

 382	2.900000000000000e-05
	-2.191802564999179e-05

 383	2.900010000000000e-05
	-2.191816127483648e-05

 384	2.900030000000000e-05
	-2.191843232246526e-05

 385	2.900070000000000e-05
	-2.191887958291616e-05

 386	2.900100000000000e-05
	-2.191904506787523e-05

 387	2.900103999932277e-05
	-2.191905112702841e-05

 388	2.900111999796831e-05
	-2.191905891013590e-05

 389	2.900127999525939e-05
	-2.191905806059324e-05

 390	2.900159998984155e-05
	-2.191903586989952e-05

 391	2.900197449652594e-05
	-2.191900675008185e-05

 392	2.900261880088393e-05
	-2.191896649428315e-05

 393	2.900385339593422e-05
	-2.191891316360994e-05

 394	2.900632258603480e-05
	-2.191886108127150e-05

 395	2.901126096623595e-05
	-2.191883661328831e-05

 396	2.901871409264659e-05
	-2.191883717861387e-05

 397	2.903029304448484e-05
	-2.191883672253425e-05

 398	2.905345094816134e-05
	-2.191883632418623e-05

 399	2.907845094816134e-05
	-2.191883570024089e-05

 400	2.910345094816134e-05
	-2.191883520952231e-05

 401	2.912845094816134e-05
	-2.191883461932775e-05

 402	2.915345094816134e-05
	-2.191883410551654e-05

 403	2.917845094816134e-05
	-2.191883353219737e-05

 404	2.920345094816134e-05
	-2.191883300683983e-05

 405	2.922845094816134e-05
	-2.191883243973791e-05

 406	2.925345094816134e-05
	-2.191883190905131e-05

 407	2.927845094816134e-05
	-2.191883134550210e-05

 408	2.930345094816134e-05
	-2.191883081126278e-05

 409	2.932845094816134e-05
	-2.191883025037811e-05

 410	2.935345094816135e-05
	-2.191882971525061e-05

 411	2.936100000000000e-05
	-2.191882953983537e-05

 412	2.936110000000000e-05
	-2.191882953939128e-05

 413	2.936130000000000e-05
	-2.191882953761493e-05

 414	2.936170000000000e-05
	-2.191882953006541e-05

 415	2.936200000000000e-05
	-2.191882952340407e-05

 416	2.936208000000000e-05
	-2.191882952207180e-05

 417	2.936224000000000e-05
	-2.191882951763091e-05

 418	2.936256000000000e-05
	-2.191882951008139e-05

 419	2.936320000000000e-05
	-2.191882949720281e-05

 420	2.936448000000000e-05
	-2.191882946922519e-05

 421	2.936703999999999e-05
	-2.191882941460221e-05

 422	2.937215999999998e-05
	-2.191882930535627e-05

 423	2.938239999999997e-05
	-2.191882909041709e-05

 424	2.940100000000000e-05
	-2.191882869828632e-05

 425	2.940110000000000e-05
	-2.191882757029973e-05

 426	2.940130000000000e-05
	-2.191882259472422e-05

 427	2.940156284231788e-05
	-2.191881090363168e-05

 428	2.940185702453755e-05
	-2.191879574464650e-05

 429	2.940200000000000e-05
	-2.191878818580406e-05

 430	2.940204023028483e-05
	-2.191878604795860e-05

 431	2.940212069085451e-05
	-2.191878177404405e-05

 432	2.940228161199386e-05
	-2.191877322532676e-05

 433	2.940260345427255e-05
	-2.191875612567173e-05

 434	2.940324713882994e-05
	-2.191872192858213e-05

 435	2.940453450794473e-05
	-2.191865353529110e-05

 436	2.940710924617429e-05
	-2.191851674870904e-05

 437	2.941225872263342e-05
	-2.191824317598901e-05

 438	2.942255767555168e-05
	-2.191769603410165e-05

 439	2.944100000000000e-05
	-2.191671627649328e-05

 440	2.944110000000000e-05
	-2.191671096385406e-05

 441	2.944130000000000e-05
	-2.191670033946380e-05

 442	2.944170000000000e-05
	-2.191671940110496e-05

 443	2.944200000000000e-05
	-2.191684667351979e-05

 444	2.944205325230408e-05
	-2.191689030262012e-05

 445	2.944215975691226e-05
	-2.191698808395870e-05

 446	2.944237276612860e-05
	-2.191722771360816e-05

 447	2.944279878456130e-05
	-2.191777876436873e-05

 448	2.944321473313039e-05
	-2.191834240816704e-05

 449	2.944386867684086e-05
	-2.191922930983026e-05

 450	2.944484904612973e-05
	-2.192055893956990e-05

 451	2.944680978470747e-05
	-2.192321819283194e-05

 452	2.945073126186294e-05
	-2.192853669891193e-05

 453	2.945857421617389e-05
	-2.193917370885146e-05

 454	2.947426012479579e-05
	-2.196044773228323e-05

 455	2.949926012479579e-05
	-2.199435399319327e-05

 456	2.950000000000000e-05
	-2.199535744917824e-05

 457	2.950010000000000e-05
	-2.199549307491111e-05

 458	2.950030000000000e-05
	-2.199576432548866e-05

 459	2.950070000000000e-05
	-2.199630682619969e-05

 460	2.950100000000000e-05
	-2.199671370073375e-05

 461	2.950108000000000e-05
	-2.199682220105359e-05

 462	2.950124000000000e-05
	-2.199703920213736e-05

 463	2.950156000000000e-05
	-2.199747320341672e-05

 464	2.950220000000000e-05
	-2.199834120375499e-05

 465	2.950347999999999e-05
	-2.200007720398744e-05

 466	2.950603999999999e-05
	-2.200354920445236e-05

 467	2.951115999999998e-05
	-2.201049320582626e-05

 468	2.952139999999997e-05
	-2.202438120857408e-05

 469	2.954187999999995e-05
	-2.205215721096110e-05

 470	2.956687999999995e-05
	-2.208606345766029e-05

 471	2.959187999999995e-05
	-2.211996969858632e-05

 472	2.961687999999995e-05
	-2.215387593729190e-05

 473	2.964187999999995e-05
	-2.218778216978023e-05

 474	2.966687999999995e-05
	-2.222168839516314e-05

 475	2.969187999999995e-05
	-2.225559461654925e-05

 476	2.971687999999995e-05
	-2.228950083349446e-05

 477	2.974187999999995e-05
	-2.232340704511060e-05

 478	2.976687999999995e-05
	-2.235731325095358e-05

 479	2.979187999999995e-05
	-2.239121945102340e-05

 480	2.981687999999995e-05
	-2.242512564709642e-05

 481	2.984187999999995e-05
	-2.245903183695219e-05

 482	2.986687999999995e-05
	-2.249293802147889e-05

 483	2.989187999999996e-05
	-2.252684419978834e-05

 484	2.990100000000000e-05
	-2.253921317230123e-05

 485	2.990110000000000e-05
	-2.253934879625774e-05

 486	2.990130000000000e-05
	-2.253962004594712e-05

 487	2.990170000000000e-05
	-2.254016254443769e-05

 488	2.990200000000000e-05
	-2.254056941719540e-05

 489	2.990206250000000e-05
	-2.254065418272333e-05

 490	2.990218750000000e-05
	-2.254082371377919e-05

 491	2.990243750000000e-05
	-2.254116277455864e-05

 492	2.990293749999999e-05
	-2.254184089878208e-05

 493	2.990393749999999e-05
	-2.254319714545261e-05

 494	2.990593749999998e-05
	-2.254590964012593e-05

 495	2.990993749999997e-05
	-2.255133462947256e-05

 496	2.991793749999995e-05
	-2.256218460328085e-05

 497	2.993393749999990e-05
	-2.258388454912108e-05

 498	2.995893749999990e-05
	-2.261779071321968e-05

 499	2.998393749999990e-05
	-2.265169687287738e-05

 500	3.000000000000000e-05
	-2.267348157758420e-05

 501	3.000010000000000e-05
	-2.267361720198480e-05

 502	3.000030000000000e-05
	-2.267388825005767e-05

 503	3.000070000000000e-05
	-2.267433551095266e-05

 504	3.000100000000000e-05
	-2.267450099635582e-05

 505	3.000103999930101e-05
	-2.267450705417673e-05

 506	3.000111999790303e-05
	-2.267451483728422e-05

 507	3.000127999510708e-05
	-2.267451398685338e-05

 508	3.000159998951518e-05
	-2.267449179571557e-05

 509	3.000197449597654e-05
	-2.267446267545381e-05

 510	3.000261879989893e-05
	-2.267442241832285e-05

 511	3.000385339372940e-05
	-2.267436908631737e-05

 512	3.000632258139033e-05
	-2.267431700220257e-05

 513	3.001126095671219e-05
	-2.267429253022257e-05

 514	3.001871408249376e-05
	-2.267429308933089e-05

 515	3.003029302665519e-05
	-2.267429262303722e-05

 516	3.005345091497805e-05
	-2.267429220736972e-05

 517	3.007845091497805e-05
	-2.267429156344036e-05

 518	3.010345091497805e-05
	-2.267429105318186e-05

 519	3.012845091497805e-05
	-2.267429044344738e-05

 520	3.015345091497805e-05
	-2.267428991009623e-05

 521	3.017845091497805e-05
	-2.267428931634896e-05

 522	3.020345091497805e-05
	-2.267428877145150e-05

 523	3.022845091497805e-05
	-2.267428818569783e-05

 524	3.025345091497805e-05
	-2.267428763502721e-05

 525	3.027845091497805e-05
	-2.267428705371444e-05

 526	3.030345091497805e-05
	-2.267428650037928e-05

 527	3.032845091497805e-05
	-2.267428592039877e-05

 528	3.035345091497805e-05
	-2.267428536617544e-05

 529	3.036100000000000e-05
	-2.267428518409886e-05

 530	3.036110000000000e-05
	-2.267428518409886e-05

 531	3.036130000000000e-05
	-2.267428518276660e-05

 532	3.036170000000000e-05
	-2.267428517654935e-05

 533	3.036199999999999e-05
	-2.267428516988801e-05

 534	3.036207999999999e-05
	-2.267428516855574e-05

 535	3.036223999999999e-05
	-2.267428516455894e-05

 536	3.036255999999999e-05
	-2.267428515789760e-05

 537	3.036319999999999e-05
	-2.267428514413083e-05

 538	3.036447999999999e-05
	-2.267428511526504e-05

 539	3.036703999999999e-05
	-2.267428505930980e-05

 540	3.037215999999998e-05
	-2.267428494784340e-05

 541	3.038239999999997e-05
	-2.267428472535471e-05

 542	3.040100000000000e-05
	-2.267428431945717e-05

 543	3.040110000000000e-05
	-2.267428319191467e-05

 544	3.040130000000000e-05
	-2.267427821678325e-05

 545	3.040156284210357e-05
	-2.267426652835525e-05

 546	3.040185702417772e-05
	-2.267425136981416e-05

 547	3.040199999999999e-05
	-2.267424381052763e-05

 548	3.040204023036746e-05
	-2.267424167312626e-05

 549	3.040212069110238e-05
	-2.267423739787944e-05

 550	3.040228161257223e-05
	-2.267422884916215e-05

 551	3.040260345551191e-05
	-2.267421175039530e-05

 552	3.040324714139130e-05
	-2.267417755286161e-05

 553	3.040453451315006e-05
	-2.267410915823831e-05

 554	3.040710925666758e-05
	-2.267397236943580e-05

 555	3.041225874370262e-05
	-2.267369879360714e-05

 556	3.042255771777271e-05
	-2.267315164372619e-05

 557	3.044100000000000e-05
	-2.267217187634785e-05

 558	3.044110000000000e-05
	-2.267216656415272e-05

 559	3.044130000000000e-05
	-2.267215593887428e-05

 560	3.044170000000000e-05
	-2.267217499962726e-05

 561	3.044199999999999e-05
	-2.267230227337436e-05

 562	3.044205325228621e-05
	-2.267234590114242e-05

 563	3.044215975685864e-05
	-2.267244368248100e-05

 564	3.044237276600351e-05
	-2.267268331213046e-05

 565	3.044279878429323e-05
	-2.267323436022650e-05

 566	3.044321473263185e-05
	-2.267379800446889e-05

 567	3.044386867582822e-05
	-2.267468490568803e-05

 568	3.044484904396168e-05
	-2.267601453143087e-05

 569	3.044680978022859e-05
	-2.267867377447885e-05

 570	3.045073125276241e-05
	-2.268399226723616e-05

 571	3.045857419783005e-05
	-2.269462925141852e-05

 572	3.047426008796534e-05
	-2.271590322422412e-05

 573	3.049926008796534e-05
	-2.274980944427796e-05

 574	3.050000000000000e-05