Title: ** sch_path: /home/tare/desktop/analog design/lab3_part2.sch
Date: Mon Feb  5 14:11:56  2024
Plotname: Transient Analysis
Flags: real
No. Variables: 2
No. Points: 30736
Variables:
	0	time	time
	1	v(vsh)	voltage
Values:
 0	2.561687999999981e-05
	3.000009811966654e+00

 1	2.564187999999981e-05
	3.000009811966409e+00

 2	2.566687999999981e-05
	3.000009811966164e+00

 3	2.569187999999981e-05
	3.000009811965918e+00

 4	2.571687999999981e-05
	3.000009811965674e+00

 5	2.574187999999981e-05
	3.000009811965429e+00

 6	2.576687999999981e-05
	3.000009811965184e+00

 7	2.579187999999981e-05
	3.000009811964939e+00

 8	2.581687999999981e-05
	3.000009811964694e+00

 9	2.584187999999981e-05
	3.000009811964449e+00

 10	2.586687999999981e-05
	3.000009811964204e+00

 11	2.589187999999981e-05
	3.000009811963959e+00

 12	2.590099999999999e-05
	3.000009811963869e+00

 13	2.590109999999999e-05
	3.000009811963868e+00

 14	2.590130000000000e-05
	3.000009811963866e+00

 15	2.590170000000000e-05
	3.000009811963862e+00

 16	2.590199999999999e-05
	3.000009811963860e+00

 17	2.590206249999999e-05
	3.000009811963859e+00

 18	2.590218749999999e-05
	3.000009811963858e+00

 19	2.590243749999999e-05
	3.000009811963857e+00

 20	2.590293749999999e-05
	3.000009811963853e+00

 21	2.590393749999999e-05
	3.000009811963843e+00

 22	2.590593749999998e-05
	3.000009811963824e+00

 23	2.590993749999997e-05
	3.000009811963785e+00

 24	2.591793749999994e-05
	3.000009811963706e+00

 25	2.593393749999989e-05
	3.000009811963551e+00

 26	2.595893749999989e-05
	3.000009811963306e+00

 27	2.598393749999989e-05
	3.000009811963062e+00

 28	2.600000000000000e-05
	3.000009811962904e+00

 29	2.600010000000000e-05
	3.000009811962902e+00

 30	2.600030000000000e-05
	3.000009811962915e+00

 31	2.600070000000000e-05
	3.000009811963533e+00

 32	2.600100000000000e-05
	3.000009811963552e+00

 33	2.600105599977003e-05
	3.000009811963060e+00

 34	2.600116799931009e-05
	3.000009811961454e+00

 35	2.600139199839020e-05
	3.000009811955134e+00

 36	2.600183999655043e-05
	3.000009811934635e+00

 37	2.600273599287090e-05
	3.000009811880242e+00

 38	2.600397836816785e-05
	3.000009811796983e+00

 39	2.600582110173240e-05
	3.000009811672235e+00

 40	2.600901873591473e-05
	3.000009811454528e+00

 41	2.601541400427939e-05
	3.000009811013944e+00

 42	2.602820454100872e-05
	3.000009810112294e+00

 43	2.605320454100872e-05
	3.000009808271009e+00

 44	2.607820454100872e-05
	3.000009806325274e+00

 45	2.610320454100872e-05
	3.000009804275137e+00

 46	2.612820454100872e-05
	3.000009802120591e+00

 47	2.615320454100872e-05
	3.000009799861679e+00

 48	2.617820454100872e-05
	3.000009797498402e+00

 49	2.620320454100872e-05
	3.000009795030802e+00

 50	2.622820454100872e-05
	3.000009792458884e+00

 51	2.625320454100872e-05
	3.000009789782687e+00

 52	2.627820454100872e-05
	3.000009787002224e+00

 53	2.630320454100872e-05
	3.000009784117533e+00

 54	2.632820454100872e-05
	3.000009781128630e+00

 55	2.635320454100872e-05
	3.000009778035553e+00

 56	2.636100000000000e-05
	3.000009777049780e+00

 57	2.636110000000000e-05
	3.000009777037067e+00

 58	2.636130000000000e-05
	3.000009777011638e+00

 59	2.636170000000000e-05
	3.000009776960761e+00

 60	2.636200000000000e-05
	3.000009776922585e+00

 61	2.636207999999999e-05
	3.000009776912402e+00

 62	2.636224000000000e-05
	3.000009776892033e+00

 63	2.636255999999999e-05
	3.000009776851283e+00

 64	2.636320000000000e-05
	3.000009776769735e+00

 65	2.636447999999999e-05
	3.000009776606435e+00

 66	2.636703999999999e-05
	3.000009776279015e+00

 67	2.637215999999998e-05
	3.000009775620900e+00

 68	2.638239999999997e-05
	3.000009774291566e+00

 69	2.640100000000000e-05
	3.000009771832279e+00

 70	2.640110000000000e-05
	3.000009771818330e+00

 71	2.640130000000000e-05
	3.000009771789277e+00

 72	2.640159379206169e-05
	3.000009771744408e+00

 73	2.640191127865048e-05
	3.000009771695256e+00

 74	2.640200000000000e-05
	3.000009771681483e+00

 75	2.640202816546328e-05
	3.000009771677111e+00

 76	2.640208449638985e-05
	3.000009771668366e+00

 77	2.640219715824300e-05
	3.000009771650876e+00

 78	2.640242248194930e-05
	3.000009771615896e+00

 79	2.640287312936188e-05
	3.000009771545935e+00

 80	2.640377442418705e-05
	3.000009771406013e+00

 81	2.640557701383740e-05
	3.000009771126171e+00

 82	2.640918219313810e-05
	3.000009770566486e+00

 83	2.641639255173948e-05
	3.000009769447119e+00

 84	2.643081326894226e-05
	3.000009767208385e+00

 85	2.644100000000000e-05
	3.000009765626953e+00

 86	2.644110000000000e-05
	3.000009765611428e+00

 87	2.644130000000000e-05
	3.000009765580379e+00

 88	2.644170000000000e-05
	3.000009765532254e+00

 89	2.644200000000000e-05
	3.000009765518003e+00

 90	2.644207999999999e-05
	3.000009765517803e+00

 91	2.644224000000000e-05
	3.000009765518049e+00

 92	2.644255999999999e-05
	3.000009765519974e+00

 93	2.644319999999999e-05
	3.000009765523401e+00

 94	2.644447999999999e-05
	3.000009765527581e+00

 95	2.644703999999999e-05
	3.000009765530941e+00

 96	2.644984076299917e-05
	3.000009765531598e+00

 97	2.645406800185915e-05
	3.000009765531707e+00

 98	2.645973740283745e-05
	3.000009765531628e+00

 99	2.647107620479406e-05
	3.000009765531532e+00

 100	2.649375380870727e-05
	3.000009765531294e+00

 101	2.650000000000000e-05
	3.000009765531246e+00

 102	2.650010000000000e-05
	3.000009765531242e+00

 103	2.650030000000000e-05
	3.000009765531237e+00

 104	2.650070000000000e-05
	3.000009765531233e+00

 105	2.650100000000000e-05
	3.000009765531230e+00

 106	2.650107999999999e-05
	3.000009765531229e+00

 107	2.650124000000000e-05
	3.000009765531227e+00

 108	2.650155999999999e-05
	3.000009765531223e+00

 109	2.650220000000000e-05
	3.000009765531217e+00

 110	2.650347999999999e-05
	3.000009765531204e+00

 111	2.650603999999999e-05
	3.000009765531178e+00

 112	2.651115999999998e-05
	3.000009765531128e+00

 113	2.652139999999997e-05
	3.000009765531028e+00

 114	2.654187999999995e-05
	3.000009765530828e+00

 115	2.656687999999995e-05
	3.000009765530584e+00

 116	2.659187999999995e-05
	3.000009765530340e+00

 117	2.661687999999995e-05
	3.000009765530097e+00

 118	2.664187999999995e-05
	3.000009765529854e+00

 119	2.666687999999995e-05
	3.000009765529610e+00

 120	2.669187999999995e-05
	3.000009765529367e+00

 121	2.671687999999995e-05
	3.000009765529124e+00

 122	2.674187999999995e-05
	3.000009765528880e+00

 123	2.676687999999995e-05
	3.000009765528637e+00

 124	2.679187999999995e-05
	3.000009765528394e+00

 125	2.681687999999995e-05
	3.000009765528151e+00

 126	2.684187999999995e-05
	3.000009765527908e+00

 127	2.686687999999995e-05
	3.000009765527665e+00

 128	2.689187999999995e-05
	3.000009765527422e+00

 129	2.690100000000000e-05
	3.000009765527333e+00

 130	2.690110000000000e-05
	3.000009765527332e+00

 131	2.690130000000000e-05
	3.000009765527330e+00

 132	2.690170000000000e-05
	3.000009765527325e+00

 133	2.690199999999999e-05
	3.000009765527321e+00

 134	2.690206250000000e-05
	3.000009765527321e+00

 135	2.690218749999999e-05
	3.000009765527320e+00

 136	2.690243749999999e-05
	3.000009765527318e+00

 137	2.690293749999999e-05
	3.000009765527313e+00

 138	2.690393749999999e-05
	3.000009765527304e+00

 139	2.690593749999998e-05
	3.000009765527286e+00

 140	2.690993749999997e-05
	3.000009765527246e+00

 141	2.691793749999994e-05
	3.000009765527170e+00

 142	2.693393749999989e-05
	3.000009765527014e+00

 143	2.695893749999989e-05
	3.000009765526772e+00

 144	2.698393749999990e-05
	3.000009765526528e+00

 145	2.700000000000000e-05
	3.000009765526372e+00

 146	2.700010000000000e-05
	3.000009765526370e+00

 147	2.700030000000000e-05
	3.000009765526383e+00

 148	2.700070000000000e-05
	3.000009765527047e+00

 149	2.700100000000000e-05
	3.000009765520907e+00

 150	2.700105888358600e-05
	3.000009765517125e+00

 151	2.700117665075801e-05
	3.000009765507444e+00

 152	2.700141218510203e-05
	3.000009765477758e+00

 153	2.700188325379007e-05
	3.000009765393518e+00

 154	2.700257408183041e-05
	3.000009765243255e+00

 155	2.700337177191512e-05
	3.000009765058745e+00

 156	2.700448923671327e-05
	3.000009764797727e+00

 157	2.700634596551771e-05
	3.000009764363289e+00

 158	2.701005942312658e-05
	3.000009763492748e+00

 159	2.701748633834433e-05
	3.000009761744829e+00

 160	2.703234016877984e-05
	3.000009758221726e+00

 161	2.705734016877984e-05
	3.000009752210044e+00

 162	2.708234016877984e-05
	3.000009746095423e+00

 163	2.710734016877984e-05
	3.000009739877946e+00

 164	2.713234016877984e-05
	3.000009733557643e+00

 165	2.715734016877984e-05
	3.000009727134603e+00

 166	2.718234016877984e-05
	3.000009720608861e+00

 167	2.720734016877984e-05
	3.000009713980502e+00

 168	2.723234016877984e-05
	3.000009707249564e+00

 169	2.725734016877984e-05
	3.000009700416134e+00

 170	2.728234016877984e-05
	3.000009693480256e+00

 171	2.730734016877984e-05
	3.000009686442012e+00

 172	2.733234016877984e-05
	3.000009679301455e+00

 173	2.735734016877985e-05
	3.000009672058663e+00

 174	2.736100000000000e-05
	3.000009670989798e+00

 175	2.736110000000000e-05
	3.000009670960560e+00

 176	2.736130000000000e-05
	3.000009670902082e+00

 177	2.736170000000000e-05
	3.000009670785107e+00

 178	2.736200000000000e-05
	3.000009670697359e+00

 179	2.736208000000000e-05
	3.000009670673956e+00

 180	2.736224000000000e-05
	3.000009670627148e+00

 181	2.736256000000000e-05
	3.000009670533522e+00

 182	2.736320000000000e-05
	3.000009670346219e+00

 183	2.736447999999999e-05
	3.000009669971411e+00

 184	2.736703999999999e-05
	3.000009669220993e+00

 185	2.737215999999998e-05
	3.000009667716942e+00

 186	2.738239999999997e-05
	3.000009664695989e+00

 187	2.740100000000000e-05
	3.000009659164900e+00

 188	2.740110000000000e-05
	3.000009659134098e+00

 189	2.740130000000000e-05
	3.000009659070940e+00

 190	2.740170000000000e-05
	3.000009658940512e+00

 191	2.740200000000000e-05
	3.000009658841854e+00

 192	2.740203662831308e-05
	3.000009658829798e+00

 193	2.740210988493926e-05
	3.000009658805686e+00

 194	2.740225639819161e-05
	3.000009658757462e+00

 195	2.740254942469632e-05
	3.000009658661013e+00

 196	2.740313547770574e-05
	3.000009658468117e+00

 197	2.740430758372457e-05
	3.000009658082325e+00

 198	2.740665179576224e-05
	3.000009657310740e+00

 199	2.741134021983757e-05
	3.000009655767570e+00

 200	2.742071706798823e-05
	3.000009652681229e+00

 201	2.743947076428955e-05
	3.000009646508553e+00

 202	2.744100000000000e-05
	3.000009646005213e+00

 203	2.744110000000000e-05
	3.000009645972299e+00

 204	2.744130000000000e-05
	3.000009645906469e+00

 205	2.744170000000000e-05
	3.000009645805106e+00

 206	2.744200000000000e-05
	3.000009645775780e+00

 207	2.744207999999999e-05
	3.000009645775476e+00

 208	2.744224000000000e-05
	3.000009645776132e+00

 209	2.744255999999999e-05
	3.000009645780232e+00

 210	2.744320000000000e-05
	3.000009645787468e+00

 211	2.744430603257128e-05
	3.000009645795370e+00

 212	2.744627851483566e-05
	3.000009645802048e+00

 213	2.744834985508099e-05
	3.000009645804191e+00

 214	2.745133835381964e-05
	3.000009645805001e+00

 215	2.745499389839482e-05
	3.000009645805053e+00

 216	2.746193724834326e-05
	3.000009645805009e+00

 217	2.747359351661464e-05
	3.000009645804875e+00

 218	2.749690605315740e-05
	3.000009645804668e+00

 219	2.750000000000000e-05
	3.000009645804621e+00

 220	2.750010000000000e-05
	3.000009645804623e+00

 221	2.750030000000000e-05
	3.000009645804625e+00

 222	2.750070000000000e-05
	3.000009645804621e+00

 223	2.750100000000000e-05
	3.000009645804618e+00

 224	2.750108000000000e-05
	3.000009645804617e+00

 225	2.750124000000000e-05
	3.000009645804615e+00

 226	2.750155999999999e-05
	3.000009645804611e+00

 227	2.750220000000000e-05
	3.000009645804604e+00

 228	2.750347999999999e-05
	3.000009645804591e+00

 229	2.750603999999999e-05
	3.000009645804566e+00

 230	2.751115999999998e-05
	3.000009645804516e+00

 231	2.752139999999997e-05
	3.000009645804419e+00

 232	2.754187999999995e-05
	3.000009645804222e+00

 233	2.756687999999995e-05
	3.000009645803981e+00

 234	2.759187999999995e-05
	3.000009645803742e+00

 235	2.761687999999995e-05
	3.000009645803501e+00

 236	2.764187999999995e-05
	3.000009645803260e+00

 237	2.766687999999995e-05
	3.000009645803019e+00

 238	2.769187999999995e-05
	3.000009645802779e+00

 239	2.771687999999995e-05
	3.000009645802538e+00

 240	2.774187999999995e-05
	3.000009645802297e+00

 241	2.776687999999995e-05
	3.000009645802057e+00

 242	2.779187999999995e-05
	3.000009645801816e+00

 243	2.781687999999995e-05
	3.000009645801577e+00

 244	2.784187999999995e-05
	3.000009645801336e+00

 245	2.786687999999995e-05
	3.000009645801096e+00

 246	2.789187999999995e-05
	3.000009645800856e+00

 247	2.790100000000000e-05
	3.000009645800768e+00

 248	2.790110000000000e-05
	3.000009645800767e+00

 249	2.790130000000000e-05
	3.000009645800764e+00

 250	2.790170000000000e-05
	3.000009645800760e+00

 251	2.790199999999999e-05
	3.000009645800758e+00

 252	2.790206250000000e-05
	3.000009645800757e+00

 253	2.790218749999999e-05
	3.000009645800756e+00

 254	2.790243749999999e-05
	3.000009645800754e+00

 255	2.790293749999999e-05
	3.000009645800750e+00

 256	2.790393749999999e-05
	3.000009645800742e+00

 257	2.790593749999998e-05
	3.000009645800723e+00

 258	2.790993749999997e-05
	3.000009645800686e+00

 259	2.791793749999994e-05
	3.000009645800610e+00

 260	2.793393749999989e-05
	3.000009645800456e+00

 261	2.795893749999990e-05
	3.000009645800216e+00

 262	2.798393749999990e-05
	3.000009645799976e+00

 263	2.800000000000000e-05
	3.000009645799820e+00

 264	2.800010000000000e-05
	3.000009645799818e+00

 265	2.800030000000000e-05
	3.000009645799831e+00

 266	2.800070000000000e-05
	3.000009645800582e+00

 267	2.800100000000000e-05
	3.000009645787925e+00

 268	2.800106896078714e-05
	3.000009645779126e+00

 269	2.800120688236142e-05
	3.000009645756780e+00

 270	2.800148272550998e-05
	3.000009645689852e+00

 271	2.800203441180710e-05
	3.000009645507822e+00

 272	2.800259612053189e-05
	3.000009645293849e+00

 273	2.800341177355157e-05
	3.000009644972874e+00

 274	2.800439205514058e-05
	3.000009644584335e+00

 275	2.800635261831859e-05
	3.000009643806655e+00

 276	2.801027374467462e-05
	3.000009642249457e+00

 277	2.801811599738668e-05
	3.000009639127679e+00

 278	2.803380050281078e-05
	3.000009632854585e+00

 279	2.805880050281079e-05
	3.000009622774436e+00

 280	2.808380050281079e-05
	3.000009612594363e+00

 281	2.810880050281079e-05
	3.000009602314569e+00

 282	2.813380050281079e-05
	3.000009591935052e+00

 283	2.815880050281079e-05
	3.000009581456001e+00

 284	2.818380050281079e-05
	3.000009570877429e+00

 285	2.820880050281079e-05
	3.000009560199516e+00

 286	2.823380050281079e-05
	3.000009549422288e+00

 287	2.825880050281079e-05
	3.000009538545915e+00

 288	2.828380050281079e-05
	3.000009527570437e+00

 289	2.830880050281079e-05
	3.000009516496015e+00

 290	2.833380050281079e-05
	3.000009505322699e+00

 291	2.835880050281079e-05
	3.000009494050645e+00

 292	2.836100000000000e-05
	3.000009493054216e+00

 293	2.836110000000000e-05
	3.000009493008895e+00

 294	2.836130000000000e-05
	3.000009492918246e+00

 295	2.836170000000000e-05
	3.000009492736932e+00

 296	2.836200000000000e-05
	3.000009492600931e+00

 297	2.836208000000000e-05
	3.000009492564660e+00

 298	2.836224000000000e-05
	3.000009492492117e+00

 299	2.836256000000000e-05
	3.000009492347021e+00

 300	2.836320000000000e-05
	3.000009492056781e+00

 301	2.836447999999999e-05
	3.000009491476106e+00

 302	2.836703999999999e-05
	3.000009490313981e+00

 303	2.837215999999998e-05
	3.000009487986628e+00

 304	2.838239999999997e-05
	3.000009483319518e+00

 305	2.840100000000000e-05
	3.000009474799864e+00

 306	2.840110000000000e-05
	3.000009474752742e+00

 307	2.840130000000000e-05
	3.000009474656606e+00

 308	2.840170000000000e-05
	3.000009474459244e+00

 309	2.840200000000000e-05
	3.000009474310130e+00

 310	2.840204965489063e-05
	3.000009474285430e+00

 311	2.840214896467188e-05
	3.000009474236029e+00

 312	2.840234758423439e-05
	3.000009474137226e+00

 313	2.840274482335941e-05
	3.000009473939622e+00

 314	2.840353930160945e-05
	3.000009473544414e+00

 315	2.840512825810953e-05
	3.000009472753998e+00

 316	2.840830617110970e-05
	3.000009471173167e+00

 317	2.841466199711003e-05
	3.000009468011500e+00

 318	2.842737364911069e-05
	3.000009461688168e+00

 319	2.844100000000000e-05
	3.000009454909826e+00

 320	2.844110000000000e-05
	3.000009454860082e+00

 321	2.844130000000000e-05
	3.000009454760593e+00

 322	2.844170000000000e-05
	3.000009454608324e+00

 323	2.844200000000000e-05
	3.000009454565211e+00

 324	2.844206404173861e-05
	3.000009454564814e+00

 325	2.844219212521583e-05
	3.000009454565392e+00

 326	2.844244829217026e-05
	3.000009454570079e+00

 327	2.844296062607914e-05
	3.000009454579553e+00

 328	2.844391889134602e-05
	3.000009454591651e+00

 329	2.844551589136566e-05
	3.000009454602357e+00

 330	2.844725009495812e-05
	3.000009454606969e+00

 331	2.844953902858128e-05
	3.000009454609062e+00

 332	2.845229885160649e-05
	3.000009454609610e+00

 333	2.845673177002694e-05
	3.000009454609702e+00

 334	2.846341493146368e-05
	3.000009454609617e+00

 335	2.847678125433716e-05
	3.000009454609505e+00

 336	2.850000000000000e-05
	3.000009454609273e+00

 337	2.850010000000000e-05
	3.000009454609275e+00

 338	2.850030000000000e-05
	3.000009454609275e+00

 339	2.850070000000000e-05
	3.000009454609271e+00

 340	2.850100000000000e-05
	3.000009454609267e+00

 341	2.850108000000000e-05
	3.000009454609266e+00

 342	2.850124000000000e-05
	3.000009454609263e+00

 343	2.850156000000000e-05
	3.000009454609259e+00

 344	2.850220000000000e-05
	3.000009454609253e+00

 345	2.850347999999999e-05
	3.000009454609240e+00

 346	2.850603999999999e-05
	3.000009454609215e+00

 347	2.851115999999998e-05
	3.000009454609167e+00

 348	2.852139999999997e-05
	3.000009454609071e+00

 349	2.854187999999995e-05
	3.000009454608876e+00

 350	2.856687999999995e-05
	3.000009454608641e+00

 351	2.859187999999995e-05
	3.000009454608405e+00

 352	2.861687999999995e-05
	3.000009454608169e+00

 353	2.864187999999995e-05
	3.000009454607933e+00

 354	2.866687999999995e-05
	3.000009454607696e+00

 355	2.869187999999995e-05
	3.000009454607460e+00

 356	2.871687999999995e-05
	3.000009454607225e+00

 357	2.874187999999995e-05
	3.000009454606989e+00

 358	2.876687999999995e-05
	3.000009454606753e+00

 359	2.879187999999995e-05
	3.000009454606516e+00

 360	2.881687999999995e-05
	3.000009454606280e+00

 361	2.884187999999995e-05
	3.000009454606044e+00

 362	2.886687999999995e-05
	3.000009454605808e+00

 363	2.889187999999995e-05
	3.000009454605571e+00

 364	2.890100000000000e-05
	3.000009454605485e+00

 365	2.890110000000000e-05
	3.000009454605484e+00

 366	2.890130000000000e-05
	3.000009454605482e+00

 367	2.890170000000000e-05
	3.000009454605477e+00

 368	2.890200000000000e-05
	3.000009454605474e+00

 369	2.890206250000000e-05
	3.000009454605473e+00

 370	2.890218749999999e-05
	3.000009454605472e+00

 371	2.890243750000000e-05
	3.000009454605470e+00

 372	2.890293749999999e-05
	3.000009454605466e+00

 373	2.890393749999999e-05
	3.000009454605457e+00

 374	2.890593749999998e-05
	3.000009454605439e+00

 375	2.890993749999997e-05
	3.000009454605402e+00

 376	2.891793749999994e-05
	3.000009454605327e+00

 377	2.893393749999990e-05
	3.000009454605176e+00

 378	2.895893749999990e-05
	3.000009454604940e+00

 379	2.898393749999990e-05
	3.000009454604704e+00

 380	2.900000000000000e-05
	3.000009454604553e+00

 381	2.900010000000000e-05
	3.000009454604551e+00

 382	2.900030000000000e-05
	3.000009454604565e+00

 383	2.900070000000000e-05
	3.000009454605395e+00

 384	2.900100000000000e-05
	3.000009454585987e+00

 385	2.900106574842310e-05
	3.000009454573683e+00

 386	2.900119724526929e-05
	3.000009454542934e+00

 387	2.900144690972324e-05
	3.000009454457798e+00

 388	2.900194623863115e-05
	3.000009454229235e+00

 389	2.900250127611460e-05
	3.000009453935264e+00

 390	2.900326325872585e-05
	3.000009453516874e+00

 391	2.900420315445663e-05
	3.000009452997098e+00

 392	2.900608294591821e-05
	3.000009451956902e+00

 393	2.900984252884137e-05
	3.000009449874909e+00

 394	2.901736169468768e-05
	3.000009445704438e+00

 395	2.903240002638031e-05
	3.000009437337562e+00

 396	2.905740002638031e-05
	3.000009423351955e+00

 397	2.908240002638031e-05
	3.000009409270959e+00

 398	2.910740002638031e-05
	3.000009395094841e+00

 399	2.913240002638031e-05
	3.000009380823609e+00

 400	2.915740002638031e-05
	3.000009366457514e+00

 401	2.918240002638031e-05
	3.000009351996583e+00

 402	2.920740002638031e-05
	3.000009337441055e+00

 403	2.923240002638031e-05
	3.000009322790969e+00

 404	2.925740002638031e-05
	3.000009308046554e+00

 405	2.928240002638032e-05
	3.000009293207865e+00

 406	2.930740002638032e-05
	3.000009278275119e+00

 407	2.933240002638032e-05
	3.000009263248385e+00

 408	2.935740002638032e-05
	3.000009248127872e+00

 409	2.936100000000000e-05
	3.000009245942827e+00

 410	2.936110000000000e-05
	3.000009245882101e+00

 411	2.936130000000000e-05
	3.000009245760646e+00

 412	2.936170000000000e-05
	3.000009245517719e+00

 413	2.936200000000000e-05
	3.000009245335510e+00

 414	2.936208000000000e-05
	3.000009245286918e+00

 415	2.936224000000000e-05
	3.000009245189732e+00

 416	2.936256000000000e-05
	3.000009244995347e+00

 417	2.936320000000000e-05
	3.000009244606536e+00

 418	2.936448000000000e-05
	3.000009243828730e+00

 419	2.936703999999999e-05
	3.000009242272382e+00

 420	2.937215999999998e-05
	3.000009239156741e+00

 421	2.938239999999997e-05
	3.000009232913687e+00

 422	2.940100000000000e-05
	3.000009221533638e+00

 423	2.940110000000000e-05
	3.000009221470985e+00

 424	2.940130000000000e-05
	3.000009221343524e+00

 425	2.940170000000000e-05
	3.000009221082630e+00

 426	2.940200000000000e-05
	3.000009220885562e+00

 427	2.940204984416782e-05
	3.000009220852795e+00

 428	2.940214953250346e-05
	3.000009220787260e+00

 429	2.940234890917475e-05
	3.000009220656188e+00

 430	2.940274766251732e-05
	3.000009220394045e+00

 431	2.940354516920246e-05
	3.000009219869759e+00

 432	2.940514018257275e-05
	3.000009218821188e+00

 433	2.940833020931332e-05
	3.000009216724045e+00

 434	2.941471026279446e-05
	3.000009212529761e+00

 435	2.942747036975675e-05
	3.000009204141195e+00

 436	2.944100000000000e-05
	3.000009195246741e+00

 437	2.944110000000000e-05
	3.000009195181001e+00

 438	2.944130000000000e-05
	3.000009195049519e+00

 439	2.944170000000000e-05
	3.000009194849370e+00

 440	2.944200000000000e-05
	3.000009194793819e+00

 441	2.944205421321206e-05
	3.000009194793397e+00

 442	2.944216263963619e-05
	3.000009194793925e+00

 443	2.944237949248445e-05
	3.000009194798874e+00

 444	2.944281319818096e-05
	3.000009194809884e+00

 445	2.944368060957399e-05
	3.000009194825833e+00

 446	2.944509101480997e-05
	3.000009194840438e+00

 447	2.944664726124388e-05
	3.000009194847662e+00

 448	2.944857447143693e-05
	3.000009194851170e+00

 449	2.945090267983742e-05
	3.000009194852466e+00

 450	2.945431562263011e-05
	3.000009194852829e+00

 451	2.945925403506683e-05
	3.000009194852813e+00

 452	2.946816591366097e-05
	3.000009194852725e+00

 453	2.948598967084924e-05
	3.000009194852566e+00

 454	2.950000000000000e-05
	3.000009194852435e+00

 455	2.950010000000000e-05
	3.000009194852434e+00

 456	2.950030000000000e-05
	3.000009194852433e+00

 457	2.950070000000000e-05
	3.000009194852428e+00

 458	2.950100000000000e-05
	3.000009194852425e+00

 459	2.950108000000000e-05
	3.000009194852424e+00

 460	2.950124000000000e-05
	3.000009194852422e+00

 461	2.950156000000000e-05
	3.000009194852419e+00

 462	2.950220000000000e-05
	3.000009194852412e+00

 463	2.950347999999999e-05
	3.000009194852401e+00

 464	2.950603999999999e-05
	3.000009194852378e+00

 465	2.951115999999998e-05
	3.000009194852331e+00

 466	2.952139999999997e-05
	3.000009194852237e+00

 467	2.954187999999995e-05
	3.000009194852050e+00

 468	2.956687999999995e-05
	3.000009194851820e+00

 469	2.959187999999995e-05
	3.000009194851591e+00

 470	2.961687999999995e-05
	3.000009194851362e+00

 471	2.964187999999995e-05
	3.000009194851133e+00

 472	2.966687999999995e-05
	3.000009194850904e+00

 473	2.969187999999995e-05
	3.000009194850675e+00

 474	2.971687999999995e-05
	3.000009194850445e+00

 475	2.974187999999995e-05
	3.000009194850216e+00

 476	2.976687999999995e-05
	3.000009194849986e+00

 477	2.979187999999995e-05
	3.000009194849757e+00

 478	2.981687999999995e-05
	3.000009194849528e+00

 479	2.984187999999995e-05
	3.000009194849299e+00

 480	2.986687999999995e-05
	3.000009194849070e+00

 481	2.989187999999996e-05
	3.000009194848841e+00

 482	2.990100000000000e-05
	3.000009194848757e+00

 483	2.990110000000000e-05
	3.000009194848756e+00

 484	2.990130000000000e-05
	3.000009194848754e+00

 485	2.990170000000000e-05
	3.000009194848750e+00

 486	2.990200000000000e-05
	3.000009194848746e+00

 487	2.990206250000000e-05
	3.000009194848746e+00

 488	2.990218750000000e-05
	3.000009194848746e+00

 489	2.990243750000000e-05
	3.000009194848746e+00

 490	2.990293749999999e-05
	3.000009194848742e+00

 491	2.990393749999999e-05
	3.000009194848732e+00

 492	2.990593749999998e-05
	3.000009194848714e+00

 493	2.990993749999997e-05
	3.000009194848678e+00

 494	2.991793749999995e-05
	3.000009194848606e+00

 495	2.993393749999990e-05
	3.000009194848460e+00

 496	2.995893749999990e-05
	3.000009194848231e+00

 497	2.998393749999990e-05
	3.000009194848002e+00

 498	3.000000000000000e-05
	3.000009194847854e+00

 499	3.000010000000000e-05
	3.000009194847852e+00

 500	3.000030000000000e-05
	3.000009194847866e+00

 501	3.000070000000000e-05
	3.000009194848570e+00

 502	3.000100000000000e-05
	3.000009194822076e+00

 503	3.000105495804986e-05
	3.000009194808946e+00

 504	3.000116487414958e-05
	3.000009194776983e+00

 505	3.000138470634901e-05
	3.000009194685410e+00

 506	3.000182437074789e-05
	3.000009194437323e+00

 507	3.000236884846029e-05
	3.000009194075925e+00

 508	3.000306526014288e-05
	3.000009193591826e+00

 509	3.000394621805007e-05
	3.000009192974115e+00

 510	3.000558858075163e-05
	3.000009191821643e+00

 511	3.000887330615474e-05
	3.000009189515583e+00

 512	3.001544275696097e-05
	3.000009184898810e+00

 513	3.002858165857342e-05
	3.000009175646697e+00

 514	3.005358165857342e-05
	3.000009157974070e+00

 515	3.007858165857342e-05
	3.000009140212013e+00

 516	3.010358165857342e-05
	3.000009122360834e+00

 517	3.012858165857342e-05
	3.000009104420569e+00

 518	3.015358165857342e-05
	3.000009086391512e+00

 519	3.017858165857342e-05
	3.000009068273715e+00

 520	3.020358165857342e-05
	3.000009050067458e+00

 521	3.022858165857342e-05
	3.000009031772811e+00

 522	3.025358165857342e-05
	3.000009013390041e+00

 523	3.027858165857342e-05
	3.000008994919233e+00

 524	3.030358165857342e-05
	3.000008976360642e+00

 525	3.032858165857342e-05
	3.000008957714365e+00

 526	3.035358165857342e-05
	3.000008938980653e+00

 527	3.036100000000000e-05
	3.000008933404934e+00

 528	3.036110000000000e-05
	3.000008933329718e+00

 529	3.036130000000000e-05
	3.000008933179283e+00

 530	3.036170000000000e-05
	3.000008932878398e+00

 531	3.036199999999999e-05
	3.000008932652722e+00

 532	3.036207999999999e-05
	3.000008932592540e+00

 533	3.036223999999999e-05
	3.000008932472172e+00

 534	3.036255999999999e-05
	3.000008932231427e+00

 535	3.036319999999999e-05
	3.000008931749894e+00

 536	3.036447999999999e-05
	3.000008930786658e+00

 537	3.036703999999999e-05
	3.000008928859499e+00

 538	3.037215999999998e-05
	3.000008925002437e+00

 539	3.038239999999997e-05
	3.000008917277350e+00

 540	3.040100000000000e-05
	3.000008903208090e+00

 541	3.040110000000000e-05
	3.000008903130898e+00

 542	3.040130000000000e-05
	3.000008902974179e+00

 543	3.040170000000000e-05
	3.000008902654034e+00

 544	3.040199999999999e-05
	3.000008902412212e+00

 545	3.040204014107024e-05
	3.000008902379830e+00

 546	3.040212042321075e-05
	3.000008902315066e+00

 547	3.040228098749175e-05
	3.000008902185539e+00

 548	3.040260211605376e-05
	3.000008901926484e+00

 549	3.040324437317779e-05
	3.000008901408368e+00

 550	3.040452888742583e-05
	3.000008900372140e+00

 551	3.040709791592192e-05
	3.000008898299686e+00

 552	3.041223597291409e-05
	3.000008894154778e+00

 553	3.042251208689844e-05
	3.000008885864964e+00

 554	3.044100000000000e-05
	3.000008870950640e+00

 555	3.044110000000000e-05
	3.000008870869970e+00

 556	3.044130000000000e-05
	3.000008870708629e+00

 557	3.044170000000000e-05
	3.000008870464205e+00

 558	3.044199999999999e-05
	3.000008870397580e+00

 559	3.044204773088863e-05
	3.000008870397178e+00

 560	3.044214319266591e-05
	3.000008870397703e+00

 561	3.044233411622046e-05
	3.000008870402800e+00

 562	3.044271596332956e-05
	3.000008870414906e+00

 563	3.044347965754777e-05
	3.000008870433442e+00

 564	3.044500704598419e-05
	3.000008870454478e+00

 565	3.044651727509673e-05
	3.000008870463462e+00

 566	3.044827843320743e-05
	3.000008870467752e+00

 567	3.045034765780941e-05
	3.000008870469533e+00

 568	3.045342661595234e-05
	3.000008870470162e+00

 569	3.045771482634937e-05
	3.000008870470224e+00

 570	3.046500980195360e-05
	3.000008870470139e+00

 571	3.047888834393329e-05
	3.000008870470031e+00

 572	3.050000000000000e-05
	3.000008870469831e+00

 573	3.050010000000000e-05
	3.000008870469832e+00

 574	3.050030000000000e-05
	3.000008870469833e+00

 575	3.050070000000000e-05
	3.000008870469829e+00

 576	3.050099999999999e-05
	3.000008870469826e+00

 577	3.050107999999999e-05
	3.000008870469826e+00

 578	3.050123999999999e-05
	3.000008870469826e+00

 579	3.050155999999999e-05
	3.000008870469825e+00

 580	3.050219999999999e-05
	3.000008870469821e+00

 581	3.050347999999998e-05
	3.000008870469811e+00

 582	3.050603999999997e-05
	3.000008870469788e+00

 583	3.051115999999995e-05
	3.000008870469745e+00

 584	3.052139999999990e-05
	3.000008870469656e+00

 585	3.054187999999981e-05