Title: ** sch_path: /home/tare/desktop/analog design/lab3_part1.sch
Date: Mon Feb  5 13:06:17  2024
Plotname: Transient Analysis
Flags: real
No. Variables: 2
No. Points: 23025
Variables:
	0	time	time
	1	v(vsh)	voltage
Values:
 0	2.561687999999981e-05
	3.001068342370780e+00

 1	2.564187999999981e-05
	3.001068343197274e+00

 2	2.566687999999981e-05
	3.001068344023768e+00

 3	2.569187999999981e-05
	3.001068344850262e+00

 4	2.571687999999981e-05
	3.001068345676756e+00

 5	2.574187999999981e-05
	3.001068346503249e+00

 6	2.576687999999981e-05
	3.001068347329743e+00

 7	2.579187999999981e-05
	3.001068348156236e+00

 8	2.581687999999981e-05
	3.001068348982730e+00

 9	2.584187999999981e-05
	3.001068349809223e+00

 10	2.586687999999981e-05
	3.001068350635717e+00

 11	2.589187999999981e-05
	3.001068351462211e+00

 12	2.590099999999999e-05
	3.001068351763715e+00

 13	2.590109999999999e-05
	3.001068351767021e+00

 14	2.590130000000000e-05
	3.001068351773633e+00

 15	2.590170000000000e-05
	3.001068351786857e+00

 16	2.590199999999999e-05
	3.001068351796775e+00

 17	2.590206249999999e-05
	3.001068351798842e+00

 18	2.590218749999999e-05
	3.001068351802976e+00

 19	2.590243749999999e-05
	3.001068351811242e+00

 20	2.590293749999999e-05
	3.001068351827772e+00

 21	2.590393749999999e-05
	3.001068351860831e+00

 22	2.590593749999998e-05
	3.001068351926951e+00

 23	2.590993749999997e-05
	3.001068352059192e+00

 24	2.591793749999994e-05
	3.001068352323670e+00

 25	2.593393749999989e-05
	3.001068352852625e+00

 26	2.595893749999989e-05
	3.001068353679119e+00

 27	2.598393749999989e-05
	3.001068354505612e+00

 28	2.600000000000000e-05
	3.001068355036634e+00

 29	2.600010000000000e-05
	3.001068355039939e+00

 30	2.600030000000000e-05
	3.001068355046555e+00

 31	2.600070000000000e-05
	3.001068355059936e+00

 32	2.600100000000000e-05
	3.001068355069415e+00

 33	2.600105573724609e-05
	3.001068355070915e+00

 34	2.600116721173827e-05
	3.001068355073639e+00

 35	2.600139016072263e-05
	3.001068355077516e+00

 36	2.600183605869134e-05
	3.001068355079660e+00

 37	2.600272785462878e-05
	3.001068355066034e+00

 38	2.600451144650365e-05
	3.001068354992355e+00

 39	2.600807863025339e-05
	3.001068354762049e+00

 40	2.601521299775286e-05
	3.001068354221880e+00

 41	2.602934635045641e-05
	3.001068353112707e+00

 42	2.605434635045641e-05
	3.001068351064424e+00

 43	2.607934635045641e-05
	3.001068348899679e+00

 44	2.610434635045642e-05
	3.001068346621156e+00

 45	2.612934635045642e-05
	3.001068344226996e+00

 46	2.615434635045642e-05
	3.001068341718548e+00

 47	2.617934635045642e-05
	3.001068339094896e+00

 48	2.620434635045642e-05
	3.001068336356730e+00

 49	2.622934635045642e-05
	3.001068333503603e+00

 50	2.625434635045642e-05
	3.001068330535879e+00

 51	2.627934635045642e-05
	3.001068327453348e+00

 52	2.630434635045642e-05
	3.001068324256207e+00

 53	2.632934635045642e-05
	3.001068320944366e+00

 54	2.635434635045642e-05
	3.001068317517943e+00

 55	2.637934635045642e-05
	3.001068313976907e+00

 56	2.640100000000000e-05
	3.001068310817291e+00

 57	2.640110000000000e-05
	3.001068310802351e+00

 58	2.640130000000000e-05
	3.001068310772182e+00

 59	2.640159035037615e-05
	3.001068310727848e+00

 60	2.640190513034626e-05
	3.001068310679626e+00

 61	2.640200000000000e-05
	3.001068310665082e+00

 62	2.640202934249381e-05
	3.001068310660584e+00

 63	2.640208802748145e-05
	3.001068310651587e+00

 64	2.640220539745672e-05
	3.001068310633593e+00

 65	2.640244013740727e-05
	3.001068310597605e+00

 66	2.640290961730835e-05
	3.001068310525633e+00

 67	2.640384857711053e-05
	3.001068310381688e+00

 68	2.640572649671488e-05
	3.001068310093800e+00

 69	2.640948233592359e-05
	3.001068309518026e+00

 70	2.641699401434100e-05
	3.001068308366476e+00

 71	2.643201737117583e-05
	3.001068306063378e+00

 72	2.645701737117583e-05
	3.001068302230850e+00

 73	2.648201737117583e-05
	3.001068298398323e+00

 74	2.650000000000000e-05
	3.001068295641566e+00

 75	2.650010000000000e-05
	3.001068295626236e+00

 76	2.650030000000000e-05
	3.001068295595574e+00

 77	2.650070000000000e-05
	3.001068295534254e+00

 78	2.650100000000000e-05
	3.001068295488263e+00

 79	2.650107999999999e-05
	3.001068295475998e+00

 80	2.650124000000000e-05
	3.001068295451469e+00

 81	2.650155999999999e-05
	3.001068295402411e+00

 82	2.650220000000000e-05
	3.001068295304297e+00

 83	2.650347999999999e-05
	3.001068295108071e+00

 84	2.650603999999999e-05
	3.001068294715620e+00

 85	2.651115999999998e-05
	3.001068293930718e+00

 86	2.652139999999997e-05
	3.001068292360914e+00

 87	2.654187999999995e-05
	3.001068289221308e+00

 88	2.656687999999995e-05
	3.001068285388783e+00

 89	2.659187999999995e-05
	3.001068281556257e+00

 90	2.661687999999995e-05
	3.001068277723733e+00

 91	2.664187999999995e-05
	3.001068273891208e+00

 92	2.666687999999995e-05
	3.001068270058685e+00

 93	2.669187999999995e-05
	3.001068266226162e+00

 94	2.671687999999995e-05
	3.001068262393639e+00

 95	2.674187999999995e-05
	3.001068258561117e+00

 96	2.676687999999995e-05
	3.001068254728595e+00

 97	2.679187999999995e-05
	3.001068250896073e+00

 98	2.681687999999995e-05
	3.001068247063553e+00

 99	2.684187999999995e-05
	3.001068243231033e+00

 100	2.686687999999995e-05
	3.001068239398512e+00

 101	2.689187999999995e-05
	3.001068235565993e+00

 102	2.690100000000000e-05
	3.001068234167890e+00

 103	2.690110000000000e-05
	3.001068234152559e+00

 104	2.690130000000000e-05
	3.001068234121899e+00

 105	2.690170000000000e-05
	3.001068234060579e+00

 106	2.690199999999999e-05
	3.001068234014588e+00

 107	2.690206250000000e-05
	3.001068234005007e+00

 108	2.690218749999999e-05
	3.001068233985846e+00

 109	2.690243749999999e-05
	3.001068233947523e+00

 110	2.690293749999999e-05
	3.001068233870873e+00

 111	2.690393749999999e-05
	3.001068233717572e+00

 112	2.690593749999998e-05
	3.001068233410971e+00

 113	2.690993749999997e-05
	3.001068232797768e+00

 114	2.691793749999994e-05
	3.001068231571363e+00

 115	2.693393749999989e-05
	3.001068229118553e+00

 116	2.695893749999989e-05
	3.001068225286035e+00

 117	2.698393749999990e-05
	3.001068221453518e+00

 118	2.700000000000000e-05
	3.001068218991125e+00

 119	2.700010000000000e-05
	3.001068218975795e+00

 120	2.700030000000000e-05
	3.001068218945144e+00

 121	2.700070000000000e-05
	3.001068218884040e+00

 122	2.700100000000000e-05
	3.001068218837957e+00

 123	2.700105558454660e-05
	3.001068218829197e+00

 124	2.700116675363980e-05
	3.001068218811377e+00

 125	2.700138909182621e-05
	3.001068218774019e+00

 126	2.700183376819901e-05
	3.001068218693247e+00

 127	2.700272312094463e-05
	3.001068218512925e+00

 128	2.700450182643587e-05
	3.001068218105990e+00

 129	2.700805923741833e-05
	3.001068217216128e+00

 130	2.701517405938327e-05
	3.001068215372984e+00

 131	2.702861545978934e-05
	3.001068211862461e+00

 132	2.705361545978934e-05
	3.001068205247369e+00

 133	2.707861545978934e-05
	3.001068198518496e+00

 134	2.710361545978934e-05
	3.001068191676847e+00

 135	2.712861545978934e-05
	3.001068184721776e+00

 136	2.715361545978934e-05
	3.001068177653871e+00

 137	2.717861545978934e-05
	3.001068170472815e+00

 138	2.720361545978934e-05
	3.001068163178957e+00

 139	2.722861545978934e-05
	3.001068155772158e+00

 140	2.725361545978934e-05
	3.001068148252641e+00

 141	2.727861545978934e-05
	3.001068140620364e+00

 142	2.730361545978934e-05
	3.001068132875484e+00

 143	2.732861545978934e-05
	3.001068125018009e+00

 144	2.735361545978934e-05
	3.001068117048061e+00

 145	2.737861545978935e-05
	3.001068108965681e+00

 146	2.740100000000000e-05
	3.001068101633548e+00

 147	2.740110000000000e-05
	3.001068101600337e+00

 148	2.740130000000000e-05
	3.001068101533506e+00

 149	2.740165991125075e-05
	3.001068101412299e+00

 150	2.740200000000000e-05
	3.001068101297541e+00

 151	2.740203690077665e-05
	3.001068101285086e+00

 152	2.740211070232995e-05
	3.001068101260177e+00

 153	2.740225830543655e-05
	3.001068101210357e+00

 154	2.740255351164975e-05
	3.001068101110719e+00

 155	2.740314392407615e-05
	3.001068100911440e+00

 156	2.740432474892896e-05
	3.001068100512882e+00

 157	2.740668639863457e-05
	3.001068099715766e+00

 158	2.741140969804579e-05
	3.001068098121536e+00

 159	2.742085629686823e-05
	3.001068094933074e+00

 160	2.743974949451311e-05
	3.001068088556151e+00

 161	2.746474949451311e-05
	3.001068080118031e+00

 162	2.748974949451311e-05
	3.001068071679912e+00

 163	2.750000000000000e-05
	3.001068068220113e+00

 164	2.750010000000000e-05
	3.001068068186360e+00

 165	2.750030000000000e-05
	3.001068068118856e+00

 166	2.750070000000000e-05
	3.001068067983847e+00

 167	2.750100000000000e-05
	3.001068067882590e+00

 168	2.750108000000000e-05
	3.001068067855587e+00

 169	2.750124000000000e-05
	3.001068067801583e+00

 170	2.750155999999999e-05
	3.001068067693574e+00

 171	2.750220000000000e-05
	3.001068067477557e+00

 172	2.750347999999999e-05
	3.001068067045525e+00

 173	2.750603999999999e-05
	3.001068066181462e+00

 174	2.751115999999998e-05
	3.001068064453336e+00

 175	2.752139999999997e-05
	3.001068060997083e+00

 176	2.754187999999995e-05
	3.001068054084576e+00

 177	2.756687999999995e-05
	3.001068045646460e+00

 178	2.759187999999995e-05
	3.001068037208344e+00

 179	2.761687999999995e-05
	3.001068028770231e+00

 180	2.764187999999995e-05
	3.001068020332118e+00

 181	2.766687999999995e-05
	3.001068011894006e+00

 182	2.769187999999995e-05
	3.001068003455894e+00

 183	2.771687999999995e-05
	3.001067995017785e+00

 184	2.774187999999995e-05
	3.001067986579676e+00

 185	2.776687999999995e-05
	3.001067978141567e+00

 186	2.779187999999995e-05
	3.001067969703461e+00

 187	2.781687999999995e-05
	3.001067961265355e+00

 188	2.784187999999995e-05
	3.001067952827251e+00

 189	2.786687999999995e-05
	3.001067944389147e+00

 190	2.789187999999995e-05
	3.001067935951045e+00

 191	2.790100000000000e-05
	3.001067932872825e+00

 192	2.790110000000000e-05
	3.001067932839072e+00

 193	2.790130000000000e-05
	3.001067932771567e+00

 194	2.790170000000000e-05
	3.001067932636557e+00

 195	2.790199999999999e-05
	3.001067932535300e+00

 196	2.790206250000000e-05
	3.001067932514205e+00

 197	2.790218749999999e-05
	3.001067932472015e+00

 198	2.790243749999999e-05
	3.001067932387634e+00

 199	2.790293749999999e-05
	3.001067932218873e+00

 200	2.790393749999999e-05
	3.001067931881348e+00

 201	2.790593749999998e-05
	3.001067931206301e+00

 202	2.790993749999997e-05
	3.001067929856206e+00

 203	2.791793749999994e-05
	3.001067927156013e+00

 204	2.793393749999989e-05
	3.001067921755628e+00

 205	2.795893749999990e-05
	3.001067913317528e+00

 206	2.798393749999990e-05
	3.001067904879429e+00

 207	2.800000000000000e-05
	3.001067899457950e+00

 208	2.800010000000000e-05
	3.001067899424199e+00

 209	2.800030000000000e-05
	3.001067899356710e+00

 210	2.800070000000000e-05
	3.001067899221987e+00

 211	2.800100000000000e-05
	3.001067899121013e+00

 212	2.800105562844207e-05
	3.001067899102114e+00

 213	2.800116688532620e-05
	3.001067899064001e+00

 214	2.800138939909447e-05
	3.001067898985962e+00

 215	2.800183442663102e-05
	3.001067898823586e+00

 216	2.800272448170410e-05
	3.001067898479760e+00

 217	2.800450459185027e-05
	3.001067897747024e+00

 218	2.800806481214262e-05
	3.001067896212514e+00

 219	2.801518525272730e-05
	3.001067893092029e+00

 220	2.802836288147053e-05
	3.001067887293699e+00

 221	2.805336288147053e-05
	3.001067876209267e+00

 222	2.807836288147053e-05
	3.001067865015054e+00

 223	2.810336288147053e-05
	3.001067853710992e+00

 224	2.812836288147053e-05
	3.001067842297293e+00

 225	2.815336288147053e-05
	3.001067830773985e+00

 226	2.817836288147053e-05
	3.001067819141236e+00

 227	2.820336288147053e-05
	3.001067807399110e+00

 228	2.822836288147053e-05
	3.001067795547752e+00

 229	2.825336288147053e-05
	3.001067783587249e+00

 230	2.827836288147053e-05
	3.001067771517730e+00

 231	2.830336288147054e-05
	3.001067759339295e+00

 232	2.832836288147054e-05
	3.001067747052070e+00

 233	2.835336288147054e-05
	3.001067734656194e+00

 234	2.837836288147054e-05
	3.001067722151767e+00

 235	2.840100000000000e-05
	3.001067710735608e+00

 236	2.840110000000000e-05
	3.001067710684638e+00

 237	2.840130000000000e-05
	3.001067710582183e+00

 238	2.840170000000000e-05
	3.001067710375934e+00

 239	2.840200000000000e-05
	3.001067710220989e+00

 240	2.840204866397129e-05
	3.001067710195851e+00

 241	2.840214599191387e-05
	3.001067710145574e+00

 242	2.840234064779903e-05
	3.001067710045021e+00

 243	2.840272995956935e-05
	3.001067709843911e+00

 244	2.840350858311000e-05
	3.001067709441688e+00

 245	2.840506583019129e-05
	3.001067708637243e+00

 246	2.840818032435387e-05
	3.001067707028354e+00

 247	2.841440931267904e-05
	3.001067703810573e+00

 248	2.842686728932937e-05
	3.001067697375012e+00

 249	2.845178324263003e-05
	3.001067684503891e+00

 250	2.847678324263003e-05
	3.001067671589356e+00

 251	2.850000000000000e-05
	3.001067659596011e+00

 252	2.850010000000000e-05
	3.001067659544353e+00

 253	2.850030000000000e-05
	3.001067659441037e+00

 254	2.850070000000000e-05
	3.001067659234405e+00

 255	2.850100000000000e-05
	3.001067659079430e+00

 256	2.850108000000000e-05
	3.001067659038103e+00

 257	2.850124000000000e-05
	3.001067658955449e+00

 258	2.850156000000000e-05
	3.001067658790142e+00

 259	2.850220000000000e-05
	3.001067658459530e+00

 260	2.850347999999999e-05
	3.001067657798306e+00

 261	2.850603999999999e-05
	3.001067656475857e+00

 262	2.851115999999998e-05
	3.001067653830960e+00

 263	2.852139999999997e-05
	3.001067648541166e+00

 264	2.854187999999995e-05
	3.001067637961581e+00

 265	2.856687999999995e-05
	3.001067625047050e+00

 266	2.859187999999995e-05
	3.001067612132521e+00

 267	2.861687999999995e-05
	3.001067599217994e+00

 268	2.864187999999995e-05
	3.001067586303469e+00

 269	2.866687999999995e-05
	3.001067573388945e+00

 270	2.869187999999995e-05
	3.001067560474423e+00

 271	2.871687999999995e-05
	3.001067547559902e+00

 272	2.874187999999995e-05
	3.001067534645382e+00

 273	2.876687999999995e-05
	3.001067521730864e+00

 274	2.879187999999995e-05
	3.001067508816347e+00

 275	2.881687999999995e-05
	3.001067495901832e+00

 276	2.884187999999995e-05
	3.001067482987319e+00

 277	2.886687999999995e-05
	3.001067470072807e+00

 278	2.889187999999995e-05
	3.001067457158297e+00

 279	2.890100000000000e-05
	3.001067452447084e+00

 280	2.890110000000000e-05
	3.001067452395426e+00

 281	2.890130000000000e-05
	3.001067452292109e+00

 282	2.890170000000000e-05
	3.001067452085478e+00

 283	2.890200000000000e-05
	3.001067451930504e+00

 284	2.890206250000000e-05
	3.001067451898218e+00

 285	2.890218749999999e-05
	3.001067451833646e+00

 286	2.890243750000000e-05
	3.001067451704503e+00

 287	2.890293749999999e-05
	3.001067451446213e+00

 288	2.890393749999999e-05
	3.001067450929633e+00

 289	2.890593749999998e-05
	3.001067449896472e+00

 290	2.890993749999997e-05
	3.001067447830152e+00

 291	2.891793749999994e-05
	3.001067443697510e+00

 292	2.893393749999990e-05
	3.001067435432227e+00

 293	2.895893749999990e-05
	3.001067422517721e+00

 294	2.898393749999990e-05
	3.001067409603217e+00

 295	2.900000000000000e-05
	3.001067401305649e+00

 296	2.900010000000000e-05
	3.001067401253993e+00

 297	2.900030000000000e-05
	3.001067401150698e+00

 298	2.900070000000000e-05
	3.001067400944436e+00

 299	2.900100000000000e-05
	3.001067400790121e+00

 300	2.900105671980431e-05
	3.001067400760812e+00

 301	2.900117015941293e-05
	3.001067400701862e+00

 302	2.900139703863016e-05
	3.001067400582060e+00

 303	2.900185079706462e-05
	3.001067400335931e+00

 304	2.900275831393356e-05
	3.001067399824388e+00

 305	2.900457334767142e-05
	3.001067398757554e+00

 306	2.900820341514715e-05
	3.001067396561324e+00

 307	2.901546355009861e-05
	3.001067392127057e+00

 308	2.902887317919327e-05
	3.001067383915740e+00

 309	2.905387317919327e-05
	3.001067368525382e+00

 310	2.907887317919327e-05
	3.001067353030687e+00

 311	2.910387317919327e-05
	3.001067337430902e+00

 312	2.912887317919327e-05
	3.001067321726842e+00

 313	2.915387317919327e-05
	3.001067305918095e+00

 314	2.917887317919327e-05
	3.001067290005237e+00

 315	2.920387317919328e-05
	3.001067273988091e+00

 316	2.922887317919328e-05
	3.001067257867056e+00

 317	2.925387317919328e-05
	3.001067241642092e+00

 318	2.927887317919328e-05
	3.001067225313499e+00

 319	2.930387317919328e-05
	3.001067208881319e+00

 320	2.932887317919328e-05
	3.001067192345790e+00

 321	2.935387317919328e-05
	3.001067175707004e+00

 322	2.937887317919328e-05
	3.001067158965165e+00

 323	2.940100000000000e-05
	3.001067144061542e+00

 324	2.940110000000000e-05
	3.001067143993603e+00

 325	2.940130000000000e-05
	3.001067143857122e+00

 326	2.940170000000000e-05
	3.001067143582554e+00

 327	2.940200000000000e-05
	3.001067143376293e+00

 328	2.940205724149512e-05
	3.001067143336930e+00

 329	2.940217172448536e-05
	3.001067143258204e+00

 330	2.940240069046585e-05
	3.001067143100753e+00

 331	2.940285862242683e-05
	3.001067142785851e+00

 332	2.940377448634878e-05
	3.001067142156047e+00

 333	2.940560621419268e-05
	3.001067140896441e+00

 334	2.940926966988049e-05
	3.001067138377229e+00

 335	2.941659658125610e-05
	3.001067133338807e+00

 336	2.943125040400733e-05
	3.001067123261965e+00

 337	2.945625040400733e-05
	3.001067106070474e+00

 338	2.948125040400733e-05
	3.001067088878985e+00

 339	2.950000000000000e-05
	3.001067075985648e+00

 340	2.950010000000000e-05
	3.001067075916882e+00

 341	2.950030000000000e-05
	3.001067075779350e+00

 342	2.950070000000000e-05
	3.001067075504285e+00

 343	2.950100000000000e-05
	3.001067075297987e+00

 344	2.950108000000000e-05
	3.001067075242974e+00

 345	2.950124000000000e-05
	3.001067075132947e+00

 346	2.950156000000000e-05
	3.001067074912895e+00

 347	2.950220000000000e-05
	3.001067074472792e+00

 348	2.950347999999999e-05
	3.001067073592587e+00

 349	2.950603999999999e-05
	3.001067071832179e+00

 350	2.951115999999998e-05
	3.001067068311364e+00

 351	2.952139999999997e-05
	3.001067061269732e+00

 352	2.954187999999995e-05
	3.001067047186468e+00

 353	2.956687999999995e-05
	3.001067029994986e+00

 354	2.959187999999995e-05
	3.001067012803507e+00

 355	2.961687999999995e-05
	3.001066995612028e+00

 356	2.964187999999995e-05
	3.001066978420552e+00

 357	2.966687999999995e-05
	3.001066961229079e+00

 358	2.969187999999995e-05
	3.001066944037608e+00

 359	2.971687999999995e-05
	3.001066926846140e+00

 360	2.974187999999995e-05
	3.001066909654673e+00

 361	2.976687999999995e-05
	3.001066892463208e+00

 362	2.979187999999995e-05
	3.001066875271745e+00

 363	2.981687999999995e-05
	3.001066858080284e+00

 364	2.984187999999995e-05
	3.001066840888826e+00

 365	2.986687999999995e-05
	3.001066823697369e+00

 366	2.989187999999996e-05
	3.001066806505915e+00

 367	2.990100000000000e-05
	3.001066800234472e+00

 368	2.990110000000000e-05
	3.001066800165705e+00

 369	2.990130000000000e-05
	3.001066800028173e+00

 370	2.990170000000000e-05
	3.001066799753109e+00

 371	2.990200000000000e-05
	3.001066799546812e+00

 372	2.990206250000000e-05
	3.001066799503834e+00

 373	2.990218750000000e-05
	3.001066799417877e+00

 374	2.990243750000000e-05
	3.001066799245964e+00

 375	2.990293749999999e-05
	3.001066798902137e+00

 376	2.990393749999999e-05
	3.001066798214478e+00

 377	2.990593749999998e-05
	3.001066796839162e+00

 378	2.990993749999997e-05
	3.001066794088530e+00

 379	2.991793749999995e-05
	3.001066788587266e+00

 380	2.993393749999990e-05
	3.001066777584739e+00

 381	2.995893749999990e-05
	3.001066760393290e+00

 382	2.998393749999990e-05
	3.001066743201843e+00

 383	3.000000000000000e-05
	3.001066732156339e+00

 384	3.000010000000000e-05
	3.001066732087577e+00

 385	3.000030000000000e-05
	3.001066731950074e+00

 386	3.000070000000000e-05
	3.001066731675464e+00

 387	3.000100000000000e-05
	3.001066731470160e+00

 388	3.000106443280586e-05
	3.001066731425944e+00

 389	3.000119329841760e-05
	3.001066731337092e+00

 390	3.000145102964108e-05
	3.001066731157031e+00

 391	3.000196649208803e-05
	3.001066730789060e+00

 392	3.000299741698193e-05
	3.001066730031124e+00

 393	3.000505926676972e-05
	3.001066728469818e+00

 394	3.000918296634532e-05
	3.001066725291690e+00

 395	3.001743036549651e-05
	3.001066718906051e+00

 396	3.003281637999115e-05
	3.001066706968378e+00

 397	3.005781637999115e-05
	3.001066687490068e+00

 398	3.008281637999115e-05
	3.001066667914596e+00

 399	3.010781637999115e-05
	3.001066648240189e+00

 400	3.013281637999115e-05
	3.001066628468507e+00

 401	3.015781637999115e-05
	3.001066608598625e+00

 402	3.018281637999115e-05
	3.001066588631586e+00

 403	3.020781637999115e-05
	3.001066568566914e+00

 404	3.023281637999115e-05
	3.001066548405309e+00

 405	3.025781637999115e-05
	3.001066528146565e+00

 406	3.028281637999115e-05
	3.001066507791179e+00

 407	3.030781637999115e-05
	3.001066487339104e+00

 408	3.033281637999115e-05
	3.001066466790715e+00

 409	3.035781637999115e-05
	3.001066446146065e+00

 410	3.038281637999115e-05
	3.001066425405457e+00

 411	3.040100000000000e-05
	3.001066410259649e+00

 412	3.040110000000000e-05
	3.001066410175779e+00

 413	3.040130000000000e-05
	3.001066410007367e+00

 414	3.040170000000000e-05
	3.001066409668683e+00

 415	3.040199999999999e-05
	3.001066409414236e+00

 416	3.040204278109166e-05
	3.001066409377945e+00

 417	3.040212834327498e-05
	3.001066409305363e+00

 418	3.040229946764164e-05
	3.001066409160198e+00

 419	3.040264171637495e-05
	3.001066408869867e+00

 420	3.040332621384156e-05
	3.001066408289204e+00

 421	3.040469520877479e-05
	3.001066407127877e+00

 422	3.040743319864125e-05
	3.001066404805226e+00

 423	3.041290917837416e-05
	3.001066400159926e+00

 424	3.042386113783999e-05
	3.001066390869327e+00

 425	3.044576505677165e-05
	3.001066372288132e+00

 426	3.047076505677165e-05
	3.001066351080520e+00

 427	3.049576505677165e-05
	3.001066329872910e+00

 428	3.050000000000000e-05
	3.001066326280390e+00

 429	3.050010000000000e-05
	3.001066326195559e+00

 430	3.050030000000000e-05
	3.001066326025899e+00

 431	3.050070000000000e-05
	3.001066325686577e+00

 432	3.050099999999999e-05
	3.001066325432085e+00

 433	3.050107999999999e-05
	3.001066325364221e+00

 434	3.050123999999999e-05
	3.001066325228491e+00

 435	3.050155999999999e-05
	3.001066324957034e+00

 436	3.050219999999999e-05
	3.001066324414119e+00

 437	3.050347999999998e-05
	3.001066323328290e+00

 438	3.050603999999997e-05
	3.001066321156631e+00

 439	3.051115999999995e-05
	3.001066316813313e+00

 440	3.052139999999990e-05
	3.001066308126679e+00

 441	3.054187999999981e-05
	3.001066290753410e+00

 442	3.056687999999981e-05
	3.001066269545809e+00

 443	3.059187999999981e-05
	3.001066248338210e+00

 444	3.061687999999981e-05
	3.001066227130613e+00

 445	3.064187999999981e-05
	3.001066205923018e+00

 446	3.066687999999981e-05
	3.001066184715427e+00

 447	3.069187999999981e-05
	3.001066163507838e+00

 448	3.071687999999981e-05
	3.001066142300250e+00

 449	3.074187999999981e-05
	3.001066121092666e+00

 450	3.076687999999981e-05
	3.001066099885084e+00

 451	3.079187999999981e-05
	3.001066078677506e+00

 452	3.081687999999982e-05
	3.001066057469929e+00

 453	3.084187999999982e-05
	3.001066036262356e+00

 454	3.086687999999982e-05
	3.001066015054785e+00

 455	3.089187999999982e-05
	3.001065993847216e+00

 456	3.090099999999999e-05
	3.001065986110695e+00

 457	3.090109999999999e-05
	3.001065986025865e+00

 458	3.090129999999999e-05
	3.001065985856203e+00

 459	3.090170000000000e-05
	3.001065985516881e+00

 460	3.090200000000000e-05
	3.001065985262390e+00

 461	3.090206250000000e-05
	3.001065985209372e+00

 462	3.090218750000000e-05
	3.001065985103335e+00

 463	3.090243750000000e-05
	3.001065984891259e+00

 464	3.090293750000000e-05
	3.001065984467107e+00

 465	3.090393750000000e-05
	3.001065983618804e+00

 466	3.090593750000000e-05
	3.001065981922199e+00

 467	3.090993750000000e-05
	3.001065978528989e+00

 468	3.091793750000000e-05
	3.001065971742568e+00

 469	3.093393750000000e-05
	3.001065958169728e+00

 470	3.095893750000001e-05
	3.001065936962165e+00

 471	3.098393750000001e-05
	3.001065915754606e+00

 472	3.099999999999999e-05
	3.001065902128750e+00

 473	3.100009999999999e-05
	3.001065902043925e+00

 474	3.100030000000000e-05
	3.001065901874300e+00

 475	3.100070000000000e-05
	3.001065901535490e+00

 476	3.100100000000000e-05
	3.001065901282246e+00

 477	3.100106084970427e-05
	3.001065901230825e+00

 478	3.100118254911283e-05
	3.001065901127627e+00

 479	3.100142594792995e-05
	3.001065900919231e+00

 480	3.100191274556418e-05
	3.001065900495754e+00

 481	3.100288634083264e-05
	3.001065899629946e+00

 482	3.100483353136956e-05
	3.001065897858860e+00

 483	3.100872791244341e-05
	3.001065894267303e+00

 484	3.101651667459109e-05
	3.001065887057287e+00

 485	3.103163307208525e-05
	3.001065873042393e+00

 486	3.105663307208525e-05
	3.001065849789991e+00

 487	3.108163307208525e-05
	3.001065826448325e+00

 488	3.110663307208525e-05
	3.001065803015917e+00

 489	3.113163307208525e-05
	3.001065779494278e+00

 490	3.115663307208525e-05
	3.001065755882656e+00

 491	3.118163307208525e-05
	3.001065732182030e+00

 492	3.120663307208525e-05
	3.001065708392034e+00

 493	3.123163307208525e-05
	3.001065684513347e+00

 494	3.125663307208525e-05
	3.001065660545839e+00

 495	3.128163307208525e-05
	3.001065636490012e+00

 496	3.130663307208525e-05
	3.001065612345875e+00

 497	3.133163307208526e-05
	3.001065588113825e+00

 498	3.135663307208526e-05
	3.001065563793957e+00

 499	3.138163307208526e-05
	3.001065539386602e+00

 500	3.140100000000001e-05
	3.001065520418721e+00

 501	3.140110000000001e-05
	3.001065520320187e+00

 502	3.140130000000001e-05
	3.001065520122391e+00

 503	3.140170000000001e-05
	3.001065519724679e+00

 504	3.140200000000001e-05
	3.001065519425842e+00

 505	3.140203823126996e-05
	3.001065519387752e+00

 506	3.140211469380985e-05
	3.001065519311573e+00

 507	3.140226761888964e-05
	3.001065519159212e+00

 508	3.140257346904921e-05
	3.001065518854491e+00

 509	3.140318516936836e-05
	3.001065518245051e+00

 510	3.140440857000666e-05
	3.001065517026171e+00

 511	3.140685537128325e-05
	3.001065514588412e+00

 512	3.141174897383644e-05
	3.001065509712895e+00

 513	3.142153617894281e-05
	3.001065499961864e+00

 514	3.144111058915556e-05
	3.001065480459803e+00

 515	3.146611058915556e-05
	3.001065455552209e+00

 516	3.149111058915556e-05
	3.001065430644618e+00

 517	3.149999999999999e-05
	3.001065421788067e+00

 518	3.150009999999999e-05
	3.001065421688436e+00

 519	3.150029999999999e-05
	3.001065421489174e+00

 520	3.150069999999999e-05
	3.001065421090651e+00

 521	3.150100000000000e-05
	3.001065420791759e+00

 522	3.150107999999999e-05
	3.001065420712055e+00

 523	3.150123999999999e-05
	3.001065420552646e+00

 524	3.150155999999999e-05
	3.001065420233829e+00

 525	3.150220000000000e-05
	3.001065419596194e+00

 526	3.150348000000000e-05
	3.001065418320925e+00

 527	3.150604000000000e-05
	3.001065415770388e+00

 528	3.151116000000001e-05
	3.001065410669316e+00

 529	3.152140000000004e-05
	3.001065400467169e+00

 530	3.154188000000008e-05
	3.001065380062878e+00

 531	3.156688000000008e-05
	3.001065355155298e+00

 532	3.159188000000008e-05
	3.001065330247720e+00

 533	3.161688000000009e-05
	3.001065305340145e+00

 534	3.164188000000009e-05
	3.001065280432573e+00

 535	3.166688000000009e-05
	3.001065255525004e+00

 536	3.169188000000009e-05
	3.001065230617438e+00

 537	3.171688000000009e-05
	3.001065205709875e+00

 538	3.174188000000009e-05
	3.001065180802315e+00

 539	3.176688000000009e-05
	3.001065155894757e+00

 540	3.179188000000009e-05
	3.001065130987202e+00

 541	3.181688000000009e-05
	3.001065106079650e+00

 542	3.184188000000009e-05
	3.001065081172102e+00

 543	3.186688000000009e-05
	3.001065056264557e+00

 544	3.189188000000009e-05
	3.001065031357014e+00

 545	3.190100000000001e-05
	3.001065022270744e+00

 546	3.190110000000001e-05
	3.001065022171113e+00

 547	3.190130000000001e-05
	3.001065021971853e+00

 548	3.190170000000001e-05
	3.001065021573332e+00

 549	3.190200000000001e-05
	3.001065021274441e+00

 550	3.190206250000001e-05
	3.001065021212172e+00

 551	3.190218750000001e-05
	3.001065021087634e+00

 552	3.190243750000001e-05
	3.001065020838559e+00

 553	3.190293750000000e-05
	3.001065020340407e+00

 554	3.190393750000000e-05
	3.001065019344103e+00

 555	3.190593749999998e-05
	3.001065017351499e+00

 556	3.190993749999995e-05
	3.001065013366292e+00

 557	3.191793749999989e-05
	3.001065005395879e+00

 558	3.193393749999976e-05
	3.001064989455056e+00

 559	3.195893749999976e-05
	3.001064964547521e+00

 560	3.198393749999976e-05
	3.001064939639990e+00

 561	3.200000000000000e-05
	3.001064923636902e+00

 562	3.200010000000000e-05
	3.001064923537278e+00

 563	3.200030000000000e-05
	3.001064923338061e+00

 564	3.200070000000000e-05
	3.001064922940078e+00

 565	3.200100000000000e-05
	3.001064922642616e+00

 566	3.200105755861389e-05
	3.001064922585548e+00

 567	3.200117267584167e-05
	3.001064922471122e+00

 568	3.200140291029724e-05
	3.001064922240627e+00

 569	3.200186337920836e-05
	3.001064921774129e+00

 570	3.200278431703061e-05
	3.001064920825454e+00

 571	3.200462619267511e-05
	3.001064918894718e+00

 572	3.200830994396411e-05
	3.001064914990223e+00

 573	3.201567744654211e-05
	3.001064907156801e+00

 574	3.203041245169811e-05
	3.001064891471609e+00

 575	3.205541245169811e-05
	3.001064864793838e+00

 576	3.208041245169811e-05
	3.001064838036023e+00

 577	3.210541245169811e-05
	3.001064811197033e+00

 578	3.213041245169811e-05
	3.001064784278181e+00

 579	3.215541245169811e-05
	3.001064757278926e+00

 580	3.218041245169811e-05
	3.001064730200143e+00

 581	3.220541245169811e-05
	3.001064703041598e+00

 582	3.223041245169812e-05
	3.001064675803930e+00

 583	3.225541245169812e-05
	3.001064648487094e+00

 584	3.228041245169812e-05
	3.001064621091583e+00

 585	3.230541245169812e-05