Title: ** sch_path: /home/tare/desktop/analog design/lab3_part3.sch
Date: Mon Feb  5 16:27:55  2024
Plotname: Transient Analysis
Flags: real
No. Variables: 2
No. Points: 30209
Variables:
	0	time	time
	1	v(vshp)	voltage
Values:
 0	2.561687999999981e-05
	9.999914722821041e-01

 1	2.564187999999981e-05
	9.999914608573726e-01

 2	2.566687999999981e-05
	9.999914494326425e-01

 3	2.569187999999981e-05
	9.999914380079142e-01

 4	2.571687999999981e-05
	9.999914265831875e-01

 5	2.574187999999981e-05
	9.999914151584620e-01

 6	2.576687999999981e-05
	9.999914037337383e-01

 7	2.579187999999981e-05
	9.999913923090160e-01

 8	2.581687999999981e-05
	9.999913808842955e-01

 9	2.584187999999981e-05
	9.999913694595766e-01

 10	2.586687999999981e-05
	9.999913580348594e-01

 11	2.589187999999981e-05
	9.999913466101437e-01

 12	2.590099999999999e-05
	9.999913424424078e-01

 13	2.590109999999999e-05
	9.999913423967088e-01

 14	2.590130000000000e-05
	9.999913423053107e-01

 15	2.590170000000000e-05
	9.999913421225151e-01

 16	2.590199999999999e-05
	9.999913419854185e-01

 17	2.590206249999999e-05
	9.999913419568568e-01

 18	2.590218749999999e-05
	9.999913418997336e-01

 19	2.590243749999999e-05
	9.999913417854864e-01

 20	2.590293749999999e-05
	9.999913415569923e-01

 21	2.590393749999999e-05
	9.999913411000041e-01

 22	2.590593749999998e-05
	9.999913401860274e-01

 23	2.590993749999997e-05
	9.999913383580734e-01

 24	2.591793749999994e-05
	9.999913347021648e-01

 25	2.593393749999989e-05
	9.999913273903487e-01

 26	2.595893749999989e-05
	9.999913159656373e-01

 27	2.598393749999989e-05
	9.999913045409272e-01

 28	2.600000000000000e-05
	9.999912972005517e-01

 29	2.600010000000000e-05
	9.999912971548527e-01

 30	2.600030000000000e-05
	9.999912970635279e-01

 31	2.600070000000000e-05
	9.999912969129106e-01

 32	2.600100000000000e-05
	9.999912968574739e-01

 33	2.600103999943007e-05
	9.999912968554883e-01

 34	2.600111999829022e-05
	9.999912968529531e-01

 35	2.600127999601052e-05
	9.999912968533125e-01

 36	2.600159999145112e-05
	9.999912968607721e-01

 37	2.600197449923334e-05
	9.999912968704936e-01

 38	2.600261880574466e-05
	9.999912968839160e-01

 39	2.600385340681869e-05
	9.999912969016946e-01

 40	2.600632260896676e-05
	9.999912969190594e-01

 41	2.601126101326290e-05
	9.999912969272224e-01

 42	2.601871414279456e-05
	9.999912969270441e-01

 43	2.603029313258348e-05
	9.999912969272123e-01

 44	2.605345111216133e-05
	9.999912969273772e-01

 45	2.607845111216134e-05
	9.999912969276203e-01

 46	2.610345111216134e-05
	9.999912969278193e-01

 47	2.612845111216134e-05
	9.999912969280511e-01

 48	2.615345111216134e-05
	9.999912969282577e-01

 49	2.617845111216134e-05
	9.999912969284842e-01

 50	2.620345111216134e-05
	9.999912969286944e-01

 51	2.622845111216134e-05
	9.999912969289184e-01

 52	2.625345111216134e-05
	9.999912969291306e-01

 53	2.627845111216134e-05
	9.999912969293534e-01

 54	2.630345111216134e-05
	9.999912969295668e-01

 55	2.632845111216134e-05
	9.999912969297889e-01

 56	2.635345111216134e-05
	9.999912969300027e-01

 57	2.636100000000000e-05
	9.999912969300718e-01

 58	2.636110000000000e-05
	9.999912969300719e-01

 59	2.636130000000000e-05
	9.999912969300726e-01

 60	2.636170000000000e-05
	9.999912969300759e-01

 61	2.636200000000000e-05
	9.999912969300783e-01

 62	2.636207999999999e-05
	9.999912969300789e-01

 63	2.636224000000000e-05
	9.999912969300800e-01

 64	2.636255999999999e-05
	9.999912969300826e-01

 65	2.636320000000000e-05
	9.999912969300875e-01

 66	2.636447999999999e-05
	9.999912969300980e-01

 67	2.636703999999999e-05
	9.999912969301198e-01

 68	2.637215999999998e-05
	9.999912969301628e-01

 69	2.638239999999997e-05
	9.999912969302491e-01

 70	2.640100000000000e-05
	9.999912969304063e-01

 71	2.640110000000000e-05
	9.999912969306776e-01

 72	2.640130000000000e-05
	9.999912969318419e-01

 73	2.640156284337568e-05
	9.999912969346058e-01

 74	2.640185702631364e-05
	9.999912969382366e-01

 75	2.640200000000000e-05
	9.999912969400488e-01

 76	2.640204022987706e-05
	9.999912969405624e-01

 77	2.640212068963118e-05
	9.999912969415895e-01

 78	2.640228160913941e-05
	9.999912969436437e-01

 79	2.640260344815589e-05
	9.999912969477515e-01

 80	2.640324712618885e-05
	9.999912969559662e-01

 81	2.640453448225477e-05
	9.999912969723966e-01

 82	2.640710919438661e-05
	9.999912970052571e-01

 83	2.641225861865027e-05
	9.999912970709776e-01

 84	2.642255746717761e-05
	9.999912972024178e-01

 85	2.644100000000000e-05
	9.999912974377898e-01

 86	2.644110000000000e-05
	9.999912974390660e-01

 87	2.644130000000000e-05
	9.999912974416185e-01

 88	2.644170000000000e-05
	9.999912974332880e-01

 89	2.644200000000000e-05
	9.999912973893850e-01

 90	2.644205325239224e-05
	9.999912973745801e-01

 91	2.644215975717673e-05
	9.999912973414624e-01

 92	2.644237276674571e-05
	9.999912972605393e-01

 93	2.644279878588367e-05
	9.999912970747641e-01

 94	2.644321473558987e-05
	9.999912968848412e-01

 95	2.644386868183663e-05
	9.999912965859974e-01

 96	2.644484905682566e-05
	9.999912961379741e-01

 97	2.644680980680373e-05
	9.999912952419308e-01

 98	2.645073130675987e-05
	9.999912934498425e-01

 99	2.645857430667215e-05
	9.999912898656678e-01

 100	2.647426030649672e-05
	9.999912826973185e-01

 101	2.649926030649672e-05
	9.999912712725640e-01

 102	2.650000000000000e-05
	9.999912709345313e-01

 103	2.650010000000000e-05
	9.999912708888322e-01

 104	2.650030000000000e-05
	9.999912707974341e-01

 105	2.650070000000000e-05
	9.999912706146382e-01

 106	2.650100000000000e-05
	9.999912704775410e-01

 107	2.650107999999999e-05
	9.999912704409818e-01

 108	2.650124000000000e-05
	9.999912703678631e-01

 109	2.650155999999999e-05
	9.999912702216260e-01

 110	2.650220000000000e-05
	9.999912699291521e-01

 111	2.650347999999999e-05
	9.999912693442045e-01

 112	2.650603999999999e-05
	9.999912681743096e-01

 113	2.651115999999998e-05
	9.999912658345200e-01

 114	2.652139999999997e-05
	9.999912611549414e-01

 115	2.654187999999995e-05
	9.999912517957847e-01

 116	2.656687999999995e-05
	9.999912403710345e-01

 117	2.659187999999995e-05
	9.999912289462860e-01

 118	2.661687999999995e-05
	9.999912175215393e-01

 119	2.664187999999995e-05
	9.999912060967940e-01

 120	2.666687999999995e-05
	9.999911946720503e-01

 121	2.669187999999995e-05
	9.999911832473081e-01

 122	2.671687999999995e-05
	9.999911718225677e-01

 123	2.674187999999995e-05
	9.999911603978290e-01

 124	2.676687999999995e-05
	9.999911489730917e-01

 125	2.679187999999995e-05
	9.999911375483559e-01

 126	2.681687999999995e-05
	9.999911261236216e-01

 127	2.684187999999995e-05
	9.999911146988889e-01

 128	2.686687999999995e-05
	9.999911032741577e-01

 129	2.689187999999995e-05
	9.999910918494280e-01

 130	2.690100000000000e-05
	9.999910876816871e-01

 131	2.690110000000000e-05
	9.999910876359882e-01

 132	2.690130000000000e-05
	9.999910875445901e-01

 133	2.690170000000000e-05
	9.999910873617944e-01

 134	2.690199999999999e-05
	9.999910872246979e-01

 135	2.690206250000000e-05
	9.999910871961363e-01

 136	2.690218749999999e-05
	9.999910871390131e-01

 137	2.690243749999999e-05
	9.999910870247665e-01

 138	2.690293749999999e-05
	9.999910867962720e-01

 139	2.690393749999999e-05
	9.999910863392826e-01

 140	2.690593749999998e-05
	9.999910854253043e-01

 141	2.690993749999997e-05
	9.999910835973481e-01

 142	2.691793749999994e-05
	9.999910799414354e-01

 143	2.693393749999989e-05
	9.999910726296110e-01

 144	2.695893749999989e-05
	9.999910612048857e-01

 145	2.698393749999990e-05
	9.999910497801621e-01

 146	2.700000000000000e-05
	9.999910424397778e-01

 147	2.700010000000000e-05
	9.999910423940787e-01

 148	2.700030000000000e-05
	9.999910423027533e-01

 149	2.700070000000000e-05
	9.999910421521357e-01

 150	2.700100000000000e-05
	9.999910420966991e-01

 151	2.700103999938548e-05
	9.999910420947133e-01

 152	2.700111999815645e-05
	9.999910420921780e-01

 153	2.700127999569838e-05
	9.999910420925379e-01

 154	2.700159999078224e-05
	9.999910420999977e-01

 155	2.700197449810792e-05
	9.999910421097193e-01

 156	2.700261880372521e-05
	9.999910421231420e-01

 157	2.700385340229703e-05
	9.999910421409214e-01

 158	2.700632259944066e-05
	9.999910421582863e-01

 159	2.701126099372791e-05
	9.999910421664502e-01

 160	2.701871412196433e-05
	9.999910421662743e-01

 161	2.703029309599527e-05
	9.999910421664459e-01

 162	2.705345104405715e-05
	9.999910421666169e-01

 163	2.707845104405715e-05
	9.999910421668663e-01

 164	2.710345104405715e-05
	9.999910421670715e-01

 165	2.712845104405715e-05
	9.999910421673097e-01

 166	2.715345104405715e-05
	9.999910421675228e-01

 167	2.717845104405716e-05
	9.999910421677557e-01

 168	2.720345104405716e-05
	9.999910421679722e-01

 169	2.722845104405716e-05
	9.999910421682023e-01

 170	2.725345104405716e-05
	9.999910421684211e-01

 171	2.727845104405716e-05
	9.999910421686502e-01

 172	2.730345104405716e-05
	9.999910421688700e-01

 173	2.732845104405716e-05
	9.999910421690983e-01

 174	2.735345104405716e-05
	9.999910421693182e-01

 175	2.736100000000000e-05
	9.999910421693896e-01

 176	2.736110000000000e-05
	9.999910421693897e-01

 177	2.736130000000000e-05
	9.999910421693907e-01

 178	2.736170000000000e-05
	9.999910421693944e-01

 179	2.736200000000000e-05
	9.999910421693972e-01

 180	2.736208000000000e-05
	9.999910421693976e-01

 181	2.736224000000000e-05
	9.999910421693990e-01

 182	2.736256000000000e-05
	9.999910421694017e-01

 183	2.736320000000000e-05
	9.999910421694069e-01

 184	2.736447999999999e-05
	9.999910421694183e-01

 185	2.736703999999999e-05
	9.999910421694405e-01

 186	2.737215999999998e-05
	9.999910421694850e-01

 187	2.738239999999997e-05
	9.999910421695738e-01

 188	2.740100000000000e-05
	9.999910421697356e-01

 189	2.740110000000000e-05
	9.999910421700069e-01

 190	2.740130000000000e-05
	9.999910421711716e-01

 191	2.740156284293620e-05
	9.999910421739354e-01

 192	2.740185702557574e-05
	9.999910421775663e-01

 193	2.740200000000000e-05
	9.999910421793785e-01

 194	2.740204023004647e-05
	9.999910421798922e-01

 195	2.740212069013941e-05
	9.999910421809193e-01

 196	2.740228161032529e-05
	9.999910421829735e-01

 197	2.740260345069706e-05
	9.999910421870812e-01

 198	2.740324713144059e-05
	9.999910421952969e-01

 199	2.740453449292766e-05
	9.999910422117283e-01

 200	2.740710921590180e-05
	9.999910422445895e-01

 201	2.741225866185008e-05
	9.999910423103118e-01

 202	2.742255755374664e-05
	9.999910424417554e-01

 203	2.744100000000000e-05
	9.999910426771312e-01

 204	2.744110000000000e-05
	9.999910426784074e-01

 205	2.744130000000000e-05
	9.999910426809596e-01

 206	2.744170000000000e-05
	9.999910426726293e-01

 207	2.744200000000000e-05
	9.999910426287267e-01

 208	2.744205325235560e-05
	9.999910426139217e-01

 209	2.744215975706680e-05
	9.999910425808040e-01

 210	2.744237276648921e-05
	9.999910424998810e-01

 211	2.744279878533404e-05
	9.999910423141063e-01

 212	2.744321473456767e-05
	9.999910421241835e-01

 213	2.744386867976032e-05
	9.999910418253399e-01

 214	2.744484905238032e-05
	9.999910413773175e-01

 215	2.744680979762031e-05
	9.999910404812751e-01

 216	2.745073128810028e-05
	9.999910386891899e-01

 217	2.745857426906023e-05
	9.999910351050211e-01

 218	2.747426023098012e-05
	9.999910279366832e-01

 219	2.749926023098012e-05
	9.999910165119190e-01

 220	2.750000000000000e-05
	9.999910161738514e-01

 221	2.750010000000000e-05
	9.999910161281523e-01

 222	2.750030000000000e-05
	9.999910160367539e-01

 223	2.750070000000000e-05
	9.999910158539576e-01

 224	2.750100000000000e-05
	9.999910157168603e-01

 225	2.750108000000000e-05
	9.999910156803011e-01

 226	2.750124000000000e-05
	9.999910156071824e-01

 227	2.750155999999999e-05
	9.999910154609452e-01

 228	2.750220000000000e-05
	9.999910151684708e-01

 229	2.750347999999999e-05
	9.999910145835231e-01

 230	2.750603999999999e-05
	9.999910134136278e-01

 231	2.751115999999998e-05
	9.999910110738365e-01

 232	2.752139999999997e-05
	9.999910063942538e-01

 233	2.754187999999995e-05
	9.999909970350893e-01

 234	2.756687999999995e-05
	9.999909856103295e-01

 235	2.759187999999995e-05
	9.999909741855715e-01

 236	2.761687999999995e-05
	9.999909627608149e-01

 237	2.764187999999995e-05
	9.999909513360601e-01

 238	2.766687999999995e-05
	9.999909399113067e-01

 239	2.769187999999995e-05
	9.999909284865549e-01

 240	2.771687999999995e-05
	9.999909170618050e-01

 241	2.774187999999995e-05
	9.999909056370564e-01

 242	2.776687999999995e-05
	9.999908942123092e-01

 243	2.779187999999995e-05
	9.999908827875639e-01

 244	2.781687999999995e-05
	9.999908713628203e-01

 245	2.784187999999995e-05
	9.999908599380779e-01

 246	2.786687999999995e-05
	9.999908485133372e-01

 247	2.789187999999995e-05
	9.999908370885986e-01

 248	2.790100000000000e-05
	9.999908329208541e-01

 249	2.790110000000000e-05
	9.999908328751551e-01

 250	2.790130000000000e-05
	9.999908327837571e-01

 251	2.790170000000000e-05
	9.999908326009614e-01

 252	2.790199999999999e-05
	9.999908324638644e-01

 253	2.790206250000000e-05
	9.999908324353030e-01

 254	2.790218749999999e-05
	9.999908323781798e-01

 255	2.790243749999999e-05
	9.999908322639330e-01

 256	2.790293749999999e-05
	9.999908320354379e-01

 257	2.790393749999999e-05
	9.999908315784479e-01

 258	2.790593749999998e-05
	9.999908306644694e-01

 259	2.790993749999997e-05
	9.999908288365115e-01

 260	2.791793749999994e-05
	9.999908251805959e-01

 261	2.793393749999989e-05
	9.999908178687654e-01

 262	2.795893749999990e-05
	9.999908064440308e-01

 263	2.798393749999990e-05
	9.999907950192976e-01

 264	2.800000000000000e-05
	9.999907876789071e-01

 265	2.800010000000000e-05
	9.999907876332080e-01

 266	2.800030000000000e-05
	9.999907875418830e-01

 267	2.800070000000000e-05
	9.999907873912656e-01

 268	2.800100000000000e-05
	9.999907873358291e-01

 269	2.800103999935038e-05
	9.999907873338437e-01

 270	2.800111999805114e-05
	9.999907873313086e-01

 271	2.800127999545267e-05
	9.999907873316686e-01

 272	2.800159999025572e-05
	9.999907873391282e-01

 273	2.800197449722214e-05
	9.999907873488503e-01

 274	2.800261880213537e-05
	9.999907873622733e-01

 275	2.800385339873736e-05
	9.999907873800533e-01

 276	2.800632259194136e-05
	9.999907873974189e-01

 277	2.801126097834935e-05
	9.999907874055834e-01

 278	2.801871410556709e-05
	9.999907874054088e-01

 279	2.803029306718718e-05
	9.999907874055829e-01

 280	2.805345099042738e-05
	9.999907874057594e-01

 281	2.807845099042738e-05
	9.999907874060153e-01

 282	2.810345099042738e-05
	9.999907874062272e-01

 283	2.812845099042738e-05
	9.999907874064721e-01

 284	2.815345099042738e-05
	9.999907874066913e-01

 285	2.817845099042738e-05
	9.999907874069307e-01

 286	2.820345099042738e-05
	9.999907874071537e-01

 287	2.822845099042738e-05
	9.999907874073904e-01

 288	2.825345099042738e-05
	9.999907874076156e-01

 289	2.827845099042739e-05
	9.999907874078512e-01

 290	2.830345099042739e-05
	9.999907874080775e-01

 291	2.832845099042739e-05
	9.999907874083122e-01

 292	2.835345099042739e-05
	9.999907874085384e-01

 293	2.836100000000000e-05
	9.999907874086118e-01

 294	2.836110000000000e-05
	9.999907874086119e-01

 295	2.836130000000000e-05
	9.999907874086126e-01

 296	2.836170000000000e-05
	9.999907874086161e-01

 297	2.836200000000000e-05
	9.999907874086187e-01

 298	2.836208000000000e-05
	9.999907874086194e-01

 299	2.836224000000000e-05
	9.999907874086205e-01

 300	2.836256000000000e-05
	9.999907874086230e-01

 301	2.836320000000000e-05
	9.999907874086280e-01

 302	2.836447999999999e-05
	9.999907874086394e-01

 303	2.836703999999999e-05
	9.999907874086627e-01

 304	2.837215999999998e-05
	9.999907874087087e-01

 305	2.838239999999997e-05
	9.999907874088007e-01

 306	2.840100000000000e-05
	9.999907874089673e-01

 307	2.840110000000000e-05
	9.999907874092385e-01

 308	2.840130000000000e-05
	9.999907874104031e-01

 309	2.840156284259028e-05
	9.999907874131670e-01

 310	2.840185702499493e-05
	9.999907874167977e-01

 311	2.840200000000000e-05
	9.999907874186097e-01

 312	2.840204023017982e-05
	9.999907874191233e-01

 313	2.840212069053946e-05
	9.999907874201506e-01

 314	2.840228161125874e-05
	9.999907874222048e-01

 315	2.840260345269731e-05
	9.999907874263124e-01

 316	2.840324713557444e-05
	9.999907874345280e-01

 317	2.840453450132871e-05
	9.999907874509595e-01

 318	2.840710923283724e-05
	9.999907874838214e-01

 319	2.841225869585430e-05
	9.999907875495455e-01

 320	2.842255762188842e-05
	9.999907876809928e-01

 321	2.844100000000000e-05
	9.999907879163734e-01

 322	2.844110000000000e-05
	9.999907879176496e-01

 323	2.844130000000000e-05
	9.999907879202018e-01

 324	2.844170000000000e-05
	9.999907879118716e-01

 325	2.844200000000000e-05
	9.999907878679691e-01

 326	2.844205325232677e-05
	9.999907878531643e-01

 327	2.844215975698032e-05
	9.999907878200468e-01

 328	2.844237276628742e-05
	9.999907877391241e-01

 329	2.844279878490162e-05
	9.999907875533499e-01

 330	2.844321473376341e-05
	9.999907873634276e-01

 331	2.844386867812669e-05
	9.999907870645849e-01

 332	2.844484904888269e-05
	9.999907866165629e-01

 333	2.844680979039469e-05
	9.999907857205225e-01

 334	2.845073127341870e-05
	9.999907839284404e-01

 335	2.845857423946671e-05
	9.999907803442766e-01

 336	2.847426017156274e-05
	9.999907731759484e-01

 337	2.849926017156274e-05
	9.999907617511783e-01

 338	2.850000000000000e-05
	9.999907614130834e-01

 339	2.850010000000000e-05
	9.999907613673843e-01

 340	2.850030000000000e-05
	9.999907612759860e-01

 341	2.850070000000000e-05
	9.999907610931893e-01

 342	2.850100000000000e-05
	9.999907609560920e-01

 343	2.850108000000000e-05
	9.999907609195325e-01

 344	2.850124000000000e-05
	9.999907608464141e-01

 345	2.850156000000000e-05
	9.999907607001771e-01

 346	2.850220000000000e-05
	9.999907604077027e-01

 347	2.850347999999999e-05
	9.999907598227545e-01

 348	2.850603999999999e-05
	9.999907586528584e-01

 349	2.851115999999998e-05
	9.999907563130661e-01

 350	2.852139999999997e-05
	9.999907516334814e-01

 351	2.854187999999995e-05
	9.999907422743122e-01

 352	2.856687999999995e-05
	9.999907308495463e-01

 353	2.859187999999995e-05
	9.999907194247823e-01

 354	2.861687999999995e-05
	9.999907080000200e-01

 355	2.864187999999995e-05
	9.999906965752591e-01

 356	2.866687999999995e-05
	9.999906851504998e-01

 357	2.869187999999995e-05
	9.999906737257421e-01

 358	2.871687999999995e-05
	9.999906623009859e-01

 359	2.874187999999995e-05
	9.999906508762312e-01

 360	2.876687999999995e-05
	9.999906394514781e-01

 361	2.879187999999995e-05
	9.999906280267264e-01

 362	2.881687999999995e-05
	9.999906166019763e-01

 363	2.884187999999995e-05
	9.999906051772282e-01

 364	2.886687999999995e-05
	9.999905937524818e-01

 365	2.889187999999995e-05
	9.999905823277369e-01

 366	2.890100000000000e-05
	9.999905781599902e-01

 367	2.890110000000000e-05
	9.999905781142910e-01

 368	2.890130000000000e-05
	9.999905780228929e-01

 369	2.890170000000000e-05
	9.999905778400970e-01

 370	2.890200000000000e-05
	9.999905777029999e-01

 371	2.890206250000000e-05
	9.999905776744381e-01

 372	2.890218749999999e-05
	9.999905776173145e-01

 373	2.890243750000000e-05
	9.999905775030671e-01

 374	2.890293749999999e-05
	9.999905772745729e-01

 375	2.890393749999999e-05
	9.999905768175827e-01

 376	2.890593749999998e-05
	9.999905759036033e-01

 377	2.890993749999997e-05
	9.999905740756447e-01

 378	2.891793749999994e-05
	9.999905704197272e-01

 379	2.893393749999990e-05
	9.999905631078925e-01

 380	2.895893749999990e-05
	9.999905516831520e-01

 381	2.898393749999990e-05
	9.999905402584128e-01

 382	2.900000000000000e-05
	9.999905329180186e-01

 383	2.900010000000000e-05
	9.999905328723195e-01

 384	2.900030000000000e-05
	9.999905327809944e-01

 385	2.900070000000000e-05
	9.999905326303771e-01

 386	2.900100000000000e-05
	9.999905325749405e-01

 387	2.900103999932277e-05
	9.999905325729550e-01

 388	2.900111999796831e-05
	9.999905325704199e-01

 389	2.900127999525939e-05
	9.999905325707797e-01

 390	2.900159998984155e-05
	9.999905325782396e-01

 391	2.900197449652594e-05
	9.999905325879617e-01

 392	2.900261880088393e-05
	9.999905326013846e-01

 393	2.900385339593422e-05
	9.999905326191640e-01

 394	2.900632258603480e-05
	9.999905326365300e-01

 395	2.901126096623595e-05
	9.999905326446962e-01

 396	2.901871409264659e-05
	9.999905326445238e-01

 397	2.903029304448484e-05
	9.999905326447007e-01

 398	2.905345094816134e-05
	9.999905326448835e-01

 399	2.907845094816134e-05
	9.999905326451453e-01

 400	2.910345094816134e-05
	9.999905326453632e-01

 401	2.912845094816134e-05
	9.999905326456142e-01

 402	2.915345094816134e-05
	9.999905326458399e-01

 403	2.917845094816134e-05
	9.999905326460855e-01

 404	2.920345094816134e-05
	9.999905326463150e-01

 405	2.922845094816134e-05
	9.999905326465580e-01

 406	2.925345094816134e-05
	9.999905326467893e-01

 407	2.927845094816134e-05
	9.999905326470313e-01

 408	2.930345094816134e-05
	9.999905326472636e-01

 409	2.932845094816134e-05
	9.999905326475045e-01

 410	2.935345094816135e-05
	9.999905326477372e-01

 411	2.936100000000000e-05
	9.999905326478122e-01

 412	2.936110000000000e-05
	9.999905326478125e-01

 413	2.936130000000000e-05
	9.999905326478133e-01

 414	2.936170000000000e-05
	9.999905326478169e-01

 415	2.936200000000000e-05
	9.999905326478196e-01

 416	2.936208000000000e-05
	9.999905326478201e-01

 417	2.936224000000000e-05
	9.999905326478216e-01

 418	2.936256000000000e-05
	9.999905326478242e-01

 419	2.936320000000000e-05
	9.999905326478296e-01

 420	2.936448000000000e-05
	9.999905326478417e-01

 421	2.936703999999999e-05
	9.999905326478653e-01

 422	2.937215999999998e-05
	9.999905326479125e-01

 423	2.938239999999997e-05
	9.999905326480067e-01

 424	2.940100000000000e-05
	9.999905326481779e-01

 425	2.940110000000000e-05
	9.999905326484494e-01

 426	2.940130000000000e-05
	9.999905326496141e-01

 427	2.940156284231788e-05
	9.999905326523787e-01

 428	2.940185702453755e-05
	9.999905326560101e-01

 429	2.940200000000000e-05
	9.999905326578226e-01

 430	2.940204023028483e-05
	9.999905326583360e-01

 431	2.940212069085451e-05
	9.999905326593628e-01

 432	2.940228161199386e-05
	9.999905326614162e-01

 433	2.940260345427255e-05
	9.999905326655240e-01

 434	2.940324713882994e-05
	9.999905326737392e-01

 435	2.940453450794473e-05
	9.999905326901704e-01

 436	2.940710924617429e-05
	9.999905327230331e-01

 437	2.941225872263342e-05
	9.999905327887587e-01

 438	2.942255767555168e-05
	9.999905329202086e-01

 439	2.944100000000000e-05
	9.999905331555932e-01

 440	2.944110000000000e-05
	9.999905331568694e-01

 441	2.944130000000000e-05
	9.999905331594218e-01

 442	2.944170000000000e-05
	9.999905331510917e-01

 443	2.944200000000000e-05
	9.999905331071891e-01

 444	2.944205325230408e-05
	9.999905330923843e-01

 445	2.944215975691226e-05
	9.999905330592669e-01

 446	2.944237276612860e-05
	9.999905329783445e-01

 447	2.944279878456130e-05
	9.999905327925703e-01

 448	2.944321473313039e-05
	9.999905326026479e-01

 449	2.944386867684086e-05
	9.999905323038053e-01

 450	2.944484904612973e-05
	9.999905318557839e-01

 451	2.944680978470747e-05
	9.999905309597444e-01

 452	2.945073126186294e-05
	9.999905291676647e-01

 453	2.945857421617389e-05
	9.999905255835057e-01

 454	2.947426012479579e-05
	9.999905184151869e-01

 455	2.949926012479579e-05
	9.999905069904138e-01

 456	2.950000000000000e-05
	9.999905066522974e-01

 457	2.950010000000000e-05
	9.999905066065983e-01

 458	2.950030000000000e-05
	9.999905065151998e-01

 459	2.950070000000000e-05
	9.999905063324032e-01

 460	2.950100000000000e-05
	9.999905061953058e-01

 461	2.950108000000000e-05
	9.999905061587464e-01

 462	2.950124000000000e-05
	9.999905060856273e-01

 463	2.950156000000000e-05
	9.999905059393895e-01

 464	2.950220000000000e-05
	9.999905056469154e-01

 465	2.950347999999999e-05
	9.999905050619674e-01

 466	2.950603999999999e-05
	9.999905038920711e-01

 467	2.951115999999998e-05
	9.999905015522780e-01

 468	2.952139999999997e-05
	9.999904968726913e-01

 469	2.954187999999995e-05
	9.999904875135187e-01

 470	2.956687999999995e-05
	9.999904760887497e-01

 471	2.959187999999995e-05
	9.999904646639824e-01

 472	2.961687999999995e-05
	9.999904532392164e-01

 473	2.964187999999995e-05
	9.999904418144521e-01

 474	2.966687999999995e-05
	9.999904303896893e-01

 475	2.969187999999995e-05
	9.999904189649281e-01

 476	2.971687999999995e-05
	9.999904075401684e-01

 477	2.974187999999995e-05
	9.999903961154102e-01

 478	2.976687999999995e-05
	9.999903846906537e-01

 479	2.979187999999995e-05
	9.999903732658988e-01

 480	2.981687999999995e-05
	9.999903618411453e-01

 481	2.984187999999995e-05
	9.999903504163935e-01

 482	2.986687999999995e-05
	9.999903389916434e-01

 483	2.989187999999996e-05
	9.999903275668952e-01

 484	2.990100000000000e-05
	9.999903233991474e-01

 485	2.990110000000000e-05
	9.999903233534485e-01

 486	2.990130000000000e-05
	9.999903232620504e-01

 487	2.990170000000000e-05
	9.999903230792542e-01

 488	2.990200000000000e-05
	9.999903229421572e-01

 489	2.990206250000000e-05
	9.999903229135955e-01

 490	2.990218750000000e-05
	9.999903228564719e-01

 491	2.990243750000000e-05
	9.999903227422248e-01

 492	2.990293749999999e-05
	9.999903225137295e-01

 493	2.990393749999999e-05
	9.999903220567397e-01

 494	2.990593749999998e-05
	9.999903211427599e-01

 495	2.990993749999997e-05
	9.999903193148006e-01

 496	2.991793749999995e-05
	9.999903156588822e-01

 497	2.993393749999990e-05
	9.999903083470457e-01

 498	2.995893749999990e-05
	9.999902969223015e-01

 499	2.998393749999990e-05
	9.999902854975588e-01

 500	3.000000000000000e-05
	9.999902781571622e-01

 501	3.000010000000000e-05
	9.999902781114631e-01

 502	3.000030000000000e-05
	9.999902780201378e-01

 503	3.000070000000000e-05
	9.999902778695201e-01

 504	3.000100000000000e-05
	9.999902778140837e-01

 505	3.000103999930101e-05
	9.999902778120981e-01

 506	3.000111999790303e-05
	9.999902778095631e-01

 507	3.000127999510708e-05
	9.999902778099230e-01

 508	3.000159998951518e-05
	9.999902778173833e-01

 509	3.000197449597654e-05
	9.999902778271051e-01

 510	3.000261879989893e-05
	9.999902778405279e-01

 511	3.000385339372940e-05
	9.999902778583077e-01

 512	3.000632258139033e-05
	9.999902778756744e-01

 513	3.001126095671219e-05
	9.999902778838424e-01

 514	3.001871408249376e-05
	9.999902778836722e-01

 515	3.003029302665519e-05
	9.999902778838523e-01

 516	3.005345091497805e-05
	9.999902778840407e-01

 517	3.007845091497805e-05
	9.999902778843093e-01

 518	3.010345091497805e-05
	9.999902778845339e-01

 519	3.012845091497805e-05
	9.999902778847914e-01

 520	3.015345091497805e-05
	9.999902778850236e-01

 521	3.017845091497805e-05
	9.999902778852758e-01

 522	3.020345091497805e-05
	9.999902778855119e-01

 523	3.022845091497805e-05
	9.999902778857613e-01

 524	3.025345091497805e-05
	9.999902778859991e-01

 525	3.027845091497805e-05
	9.999902778862473e-01

 526	3.030345091497805e-05
	9.999902778864861e-01

 527	3.032845091497805e-05
	9.999902778867337e-01

 528	3.035345091497805e-05
	9.999902778869729e-01

 529	3.036100000000000e-05
	9.999902778870499e-01

 530	3.036110000000000e-05
	9.999902778870500e-01

 531	3.036130000000000e-05
	9.999902778870509e-01

 532	3.036170000000000e-05
	9.999902778870540e-01

 533	3.036199999999999e-05
	9.999902778870569e-01

 534	3.036207999999999e-05
	9.999902778870575e-01

 535	3.036223999999999e-05
	9.999902778870589e-01

 536	3.036255999999999e-05
	9.999902778870616e-01

 537	3.036319999999999e-05
	9.999902778870675e-01

 538	3.036447999999999e-05
	9.999902778870797e-01

 539	3.036703999999999e-05
	9.999902778871037e-01

 540	3.037215999999998e-05
	9.999902778871523e-01

 541	3.038239999999997e-05
	9.999902778872496e-01

 542	3.040100000000000e-05
	9.999902778874253e-01

 543	3.040110000000000e-05
	9.999902778876968e-01

 544	3.040130000000000e-05
	9.999902778888615e-01

 545	3.040156284210357e-05
	9.999902778916253e-01

 546	3.040185702417772e-05
	9.999902778952565e-01

 547	3.040199999999999e-05
	9.999902778970690e-01

 548	3.040204023036746e-05
	9.999902778975825e-01

 549	3.040212069110238e-05
	9.999902778986098e-01

 550	3.040228161257223e-05
	9.999902779006635e-01

 551	3.040260345551191e-05
	9.999902779047711e-01

 552	3.040324714139130e-05
	9.999902779129868e-01

 553	3.040453451315006e-05
	9.999902779294187e-01

 554	3.040710925666758e-05
	9.999902779622825e-01

 555	3.041225874370262e-05
	9.999902780280088e-01

 556	3.042255771777271e-05
	9.999902781594615e-01

 557	3.044100000000000e-05
	9.999902783948506e-01

 558	3.044110000000000e-05
	9.999902783961266e-01

 559	3.044130000000000e-05
	9.999902783986792e-01

 560	3.044170000000000e-05
	9.999902783903495e-01

 561	3.044199999999999e-05
	9.999902783464468e-01

 562	3.044205325228621e-05
	9.999902783316422e-01

 563	3.044215975685864e-05
	9.999902782985247e-01

 564	3.044237276600351e-05
	9.999902782176020e-01

 565	3.044279878429323e-05
	9.999902780318277e-01

 566	3.044321473263185e-05
	9.999902778419051e-01

 567	3.044386867582822e-05
	9.999902775430621e-01

 568	3.044484904396168e-05
	9.999902770950415e-01

 569	3.044680978022859e-05
	9.999902761990032e-01

 570	3.045073125276241e-05
	9.999902744069252e-01

 571	3.045857419783005e-05
	9.999902708227699e-01

 572	3.047426008796534e-05
	9.999902636544582e-01

 573	3.049926008796534e-05
	9.999902522296834e-01

 574	3.050000000000000e-05
	9.999902518915500e-01

 575	3.050010000000000e-05
	9.999902518458509e-01

 576	3.050030000000000e-05
	9.999902517544526e-01

 577	3.050070000000000e-05
	9.999902515716558e-01

 578	3.050099999999999e-05
	9.999902514345582e-01

 579	3.050107999999999e-05
	9.999902513979989e-01

 580	3.050123999999999e-05
	9.999902513248805e-01

 581	3.050155999999999e-05
	9.999902511786435e-01

 582	3.050219999999999e-05
	9.999902508861696e-01

 583	3.050347999999998e-05
	9.999902503012214e-01

 584	3.050603999999997e-05
	9.999902491313251e-01

 585	3.051115999999995e-05