Title: ** sch_path: /home/tare/desktop/analog design/lab_02_tah_sah_tb.sch
Date: Thu Feb  1 15:44:21  2024
Plotname: Transient Analysis (linearized)
Flags: real
No. Variables: 2
No. Points: 257
Variables:
	0	time	time
	1	v(vsh)	voltage
Values:
 0	2.327272727272727e-05
	1.058738237394775e+00

 1	2.427272727272727e-05
	9.913794601554951e-01

 2	2.527272727272727e-05
	9.241775333501410e-01

 3	2.627272727272727e-05
	8.583551763478060e-01

 4	2.727272727272727e-05
	7.951100076492427e-01

 5	2.827272727272727e-05
	7.355927556963590e-01

 6	2.927272727272727e-05
	6.808863228854849e-01

 7	3.027272727272727e-05
	6.319860770150542e-01

 8	3.127272727272727e-05
	5.897817446318147e-01

 9	3.227272727272727e-05
	5.550412221130522e-01

 10	3.327272727272727e-05
	5.283966047969008e-01

 11	3.427272727272726e-05
	5.103326822561295e-01

 12	3.527272727272726e-05
	5.011781246999819e-01

 13	3.627272727272726e-05
	5.010995103100262e-01

 14	3.727272727272726e-05
	5.100982277251460e-01

 15	3.827272727272725e-05
	5.280105881044467e-01

 16	3.927272727272725e-05
	5.545106697598695e-01

 17	4.027272727272725e-05
	5.891163068168686e-01

 18	4.127272727272724e-05
	6.311978634382966e-01

 19	4.227272727272724e-05
	6.799896741844802e-01

 20	4.327272727272724e-05
	7.346039849499078e-01

 21	4.427272727272724e-05
	7.940471049688325e-01

 22	4.527272727272723e-05
	8.572374827636553e-01

 23	4.627272727272723e-05
	9.230253861380855e-01

 24	4.727272727272723e-05
	9.902138216635410e-01

 25	4.827272727272722e-05
	1.057580314696314e+00

 26	4.927272727272722e-05
	1.123899147627672e+00

 27	5.027272727272722e-05
	1.187963669901087e+00

 28	5.127272727272722e-05
	1.248608243168979e+00

 29	5.227272727272721e-05
	1.304729459965593e+00

 30	5.327272727272721e-05
	1.355306203923128e+00

 31	5.427272727272721e-05
	1.399418248584191e+00

 32	5.527272727272720e-05
	1.436262986656148e+00

 33	5.627272727272720e-05
	1.465170038940250e+00

 34	5.727272727272720e-05
	1.485613444147227e+00

 35	5.827272727272720e-05
	1.497221246183062e+00

 36	5.927272727272719e-05
	1.499782240130927e+00

 37	6.027272727272719e-05
	1.493249838176104e+00

 38	6.127272727272719e-05
	1.477742887355575e+00

 39	6.227272727272719e-05
	1.453543531295750e+00

 40	6.327272727272719e-05
	1.421092072364326e+00

 41	6.427272727272719e-05
	1.380978959863859e+00

 42	6.527272727272718e-05
	1.333934037983655e+00

 43	6.627272727272718e-05
	1.280813276958035e+00

 44	6.727272727272718e-05
	1.222583192968613e+00

 45	6.827272727272718e-05
	1.160303270534919e+00

 46	6.927272727272717e-05
	1.095106672386122e+00

 47	7.027272727272717e-05
	1.028179632620608e+00

 48	7.127272727272717e-05
	9.607398726232086e-01

 49	7.227272727272716e-05
	8.940144417825864e-01

 50	7.327272727272716e-05
	8.292173882467540e-01

 51	7.427272727272716e-05
	7.675276772603958e-01

 52	7.527272727272716e-05
	7.100677383545571e-01

 53	7.627272727272715e-05
	6.578830378162839e-01

 54	7.727272727272715e-05
	6.119230637926139e-01

 55	7.827272727272715e-05
	5.730240427056275e-01

 56	7.927272727272714e-05
	5.418937352972135e-01

 57	8.027272727272714e-05
	5.190985457421328e-01

 58	8.127272727272714e-05
	5.050532292245233e-01

 59	8.227272727272714e-05
	5.000133343511346e-01

 60	8.327272727272713e-05
	5.040705620634617e-01

 61	8.427272727272713e-05
	5.171510911553052e-01

 62	8.527272727272713e-05
	5.390169246572241e-01

 63	8.627272727272712e-05
	5.692702210325973e-01

 64	8.727272727272712e-05
	6.073605296544994e-01

 65	8.827272727272712e-05
	6.525948066609745e-01

 66	8.927272727272712e-05
	7.041500261752009e-01

 67	9.027272727272711e-05
	7.610881561152729e-01

 68	9.127272727272711e-05
	8.223732227330958e-01

 69	9.227272727272711e-05
	8.868901609834037e-01

 70	9.327272727272711e-05
	9.534651025837879e-01

 71	9.427272727272710e-05
	1.020886733355634e+00

 72	9.527272727272710e-05
	1.087928335444434e+00

 73	9.627272727272710e-05
	1.153372410277036e+00

 74	9.727272727272709e-05
	1.216021348087803e+00

 75	9.827272727272709e-05
	1.274742140104107e+00

 76	9.927272727272709e-05
	1.328464074360765e+00

 77	1.002727272727271e-04
	1.376209691232699e+00

 78	1.012727272727271e-04
	1.417110276652972e+00

 79	1.022727272727271e-04
	1.450421653856675e+00

 80	1.032727272727271e-04
	1.475537733143913e+00

 81	1.042727272727271e-04
	1.492001528980840e+00

 82	1.052727272727271e-04
	1.499513490699053e+00

 83	1.062727272727271e-04
	1.497937174659411e+00

 84	1.072727272727271e-04
	1.487300558253495e+00

 85	1.082727272727271e-04
	1.467797877660363e+00

 86	1.092727272727271e-04
	1.439783743754615e+00

 87	1.102727272727271e-04
	1.403767863685233e+00

 88	1.112727272727271e-04
	1.360405534923032e+00

 89	1.122727272727271e-04
	1.310485723129911e+00

 90	1.132727272727270e-04
	1.254916709558499e+00

 91	1.142727272727270e-04
	1.194709556740290e+00

 92	1.152727272727270e-04
	1.130959714898065e+00

 93	1.162727272727270e-04
	1.064827097446253e+00

 94	1.172727272727270e-04
	9.975149666015217e-01

 95	1.182727272727270e-04
	9.302480514879407e-01

 96	1.192727272727270e-04
	8.642502557775882e-01

 97	1.202727272727270e-04
	8.007223869843116e-01

 98	1.212727272727270e-04
	7.408203220265628e-01

 99	1.222727272727270e-04
	6.856339604470931e-01

 100	1.232727272727270e-04
	6.361674043175219e-01

 101	1.242727272727270e-04
	5.933206834524332e-01

 102	1.252727272727270e-04
	5.578733820107208e-01

 103	1.262727272727270e-04
	5.304704555716218e-01

 104	1.272727272727270e-04
	5.116104917256623e-01

 105	1.282727272727270e-04
	5.016366427635133e-01

 106	1.292727272727270e-04
	5.007303851920087e-01

 107	1.302727272727270e-04
	5.089081932012515e-01

 108	1.312727272727270e-04
	5.260212880725930e-01

 109	1.322727272727270e-04
	5.517582979749641e-01

 110	1.332727272727270e-04
	5.856509431372738e-01

 111	1.342727272727270e-04
	6.270825583900109e-01

 112	1.352727272727270e-04
	6.752993035773976e-01

 113	1.362727272727270e-04
	7.294238913669298e-01

 114	1.372727272727270e-04
	7.884715381345657e-01

 115	1.382727272727270e-04
	8.513678876881065e-01

 116	1.392727272727270e-04
	9.169685590182692e-01

 117	1.402727272727270e-04
	9.840799647539658e-01

 118	1.412727272727270e-04
	1.051481031621186e+00

 119	1.422727272727270e-04
	1.117945413654893e+00

 120	1.432727272727270e-04
	1.182263811352168e+00

 121	1.442727272727270e-04
	1.243265967832644e+00

 122	1.452727272727270e-04
	1.299841968225677e+00

 123	1.462727272727270e-04
	1.350962422771421e+00

 124	1.472727272727270e-04
	1.395697213057541e+00

 125	1.482727272727270e-04
	1.433232398103370e+00

 126	1.492727272727269e-04
	1.462885038887795e+00

 127	1.502727272727269e-04
	1.484115609807711e+00

 128	1.512727272727269e-04
	1.496537827740138e+00

 129	1.522727272727269e-04
	1.499925670036269e+00

 130	1.532727272727269e-04
	1.494217511086287e+00

 131	1.542727272727269e-04
	1.479517192313676e+00

 132	1.552727272727269e-04
	1.456092187944056e+00

 133	1.562727272727269e-04
	1.424368709880743e+00

 134	1.572727272727269e-04
	1.384923959537284e+00

 135	1.582727272727269e-04
	1.338475621887243e+00

 136	1.592727272727269e-04
	1.285868811844725e+00

 137	1.602727272727269e-04
	1.228060694442490e+00

 138	1.612727272727269e-04
	1.166103077140698e+00

 139	1.622727272727269e-04
	1.101123257800292e+00

 140	1.632727272727269e-04
	1.034303527062024e+00

 141	1.642727272727269e-04
	9.668596539085512e-01

 142	1.652727272727269e-04
	9.000187611676463e-01

 143	1.662727272727269e-04
	8.349969998675175e-01

 144	1.672727272727269e-04
	7.729774223589025e-01

 145	1.682727272727269e-04
	7.150884598515634e-01

 146	1.692727272727269e-04
	6.623833852897422e-01

 147	1.702727272727269e-04
	6.158211547798254e-01

 148	1.712727272727269e-04
	5.762489524518654e-01

 149	1.722727272727269e-04
	5.443867871497068e-01

 150	1.732727272727269e-04
	5.208143798775604e-01

 151	1.742727272727269e-04
	5.059606255343239e-01

 152	1.752727272727269e-04
	5.000957839934441e-01

 153	1.762727272727269e-04
	5.033265642110671e-01

 154	1.772727272727269e-04
	5.155941835836773e-01

 155	1.782727272727269e-04
	5.366754348417677e-01

 156	1.792727272727269e-04
	5.661867499131998e-01

 157	1.802727272727269e-04
	6.035911814070611e-01

 158	1.812727272727269e-04
	6.482081638114467e-01

 159	1.822727272727269e-04
	6.992259022796237e-01

 160	1.832727272727269e-04
	7.557161440847903e-01

 161	1.842727272727269e-04
	8.166510649001524e-01

 162	1.852727272727268e-04
	8.809219705805262e-01

 163	1.862727272727268e-04
	9.473594695809079e-01

 164	1.872727272727268e-04
	1.014754747227668e+00

 165	1.882727272727268e-04
	1.081881566755218e+00

 166	1.892727272727268e-04
	1.147518571475106e+00

 167	1.902727272727268e-04
	1.210471519255847e+00

 168	1.912727272727268e-04
	1.269594992302382e+00

 169	1.922727272727268e-04
	1.323813259385736e+00

 170	1.932727272727268e-04
	1.372139831118737e+00

 171	1.942727272727268e-04
	1.413695415657832e+00

 172	1.952727272727268e-04
	1.447723928869756e+00

 173	1.962727272727268e-04
	1.473606226494850e+00

 174	1.972727272727268e-04
	1.490871385070004e+00

 175	1.982727272727268e-04
	1.499205270243991e+00

 176	1.992727272727268e-04
	1.498455927427140e+00

 177	2.002727272727268e-04
	1.488637959786600e+00

 178	2.012727272727268e-04
	1.469929028207977e+00

 179	2.022727272727268e-04
	1.442669869810134e+00

 180	2.032727272727268e-04
	1.407356451161930e+00

 181	2.042727272727268e-04
	1.364631291969174e+00

 182	2.052727272727268e-04
	1.315271762774970e+00

 183	2.062727272727268e-04
	1.260175952360745e+00

 184	2.072727272727268e-04
	1.200346310709197e+00

 185	2.082727272727268e-04
	1.136871421717886e+00

 186	2.092727272727268e-04
	1.070906195090362e+00

 187	2.102727272727268e-04
	1.003650846967754e+00

 188	2.112727272727268e-04
	9.363290745568567e-01

 189	2.122727272727268e-04
	8.701657781820168e-01

 190	2.132727272727268e-04
	8.063647785323258e-01

 191	2.142727272727268e-04
	7.460869193832914e-01

 192	2.152727272727268e-04
	6.904289406995554e-01

 193	2.162727272727268e-04
	6.404035230717456e-01

 194	2.172727272727268e-04
	5.969208668629327e-01

 195	2.182727272727268e-04
	5.607721247442874e-01

 196	2.192727272727268e-04
	5.326150159527210e-01

 197	2.202727272727268e-04
	5.129618501788006e-01

 198	2.212727272727267e-04
	5.021702119754288e-01

 199	2.222727272727267e-04
	5.004364513352295e-01

 200	2.232727272727267e-04
	5.077921154051788e-01

 201	2.242727272727267e-04
	5.241033669772476e-01

 202	2.252727272727267e-04
	5.490734299986806e-01

 203	2.262727272727267e-04
	5.822479785652721e-01

 204	2.272727272727267e-04
	6.230234134875329e-01

 205	2.282727272727267e-04
	6.706578345430302e-01

 206	2.292727272727267e-04
	7.242845460817219e-01

 207	2.302727272727267e-04
	7.829278262893330e-01

 208	2.312727272727267e-04
	8.455206764513737e-01

 209	2.322727272727267e-04
	9.109242363736263e-01

 210	2.332727272727267e-04
	9.779485053724899e-01

 211	2.342727272727267e-04
	1.045373996352653e+00

 212	2.352727272727267e-04
	1.111973918089548e+00

 213	2.362727272727267e-04
	1.176536504483049e+00

 214	2.372727272727267e-04
	1.237887057538970e+00

 215	2.382727272727267e-04
	1.294909321730273e+00

 216	2.392727272727267e-04
	1.346565788550335e+00

 217	2.402727272727267e-04
	1.391916586577957e+00

 218	2.412727272727267e-04
	1.430136566997192e+00

 219	2.422727272727267e-04
	1.460530329589152e+00

 220	2.432727272727267e-04
	1.482544867497828e+00

 221	2.442727272727267e-04
	1.495779632458894e+00

 222	2.452727272727267e-04
	1.499993817965374e+00

 223	2.462727272727268e-04
	1.495110754131897e+00

 224	2.472727272727268e-04
	1.481219284926709e+00

 225	2.482727272727268e-04
	1.458572161357245e+00

 226	2.492727272727268e-04
	1.427581439117166e+00

 227	2.502727272727269e-04
	1.388810991234251e+00

 228	2.512727272727269e-04
	1.342966232467063e+00

 229	2.522727272727269e-04
	1.290881294340614e+00

 230	2.532727272727269e-04
	1.233503850440217e+00

 231	2.542727272727270e-04
	1.171877869366138e+00

 232	2.552727272727270e-04
	1.107124614219222e+00

 233	2.562727272727270e-04
	1.040422255850048e+00

 234	2.572727272727270e-04
	9.729844260234893e-01

 235	2.582727272727271e-04
	9.060381377839478e-01

 236	2.592727272727271e-04
	8.408014607174554e-01

 237	2.602727272727271e-04
	7.784613565732519e-01

 238	2.612727272727271e-04
	7.201520881378241e-01

 239	2.622727272727271e-04
	6.669345766721018e-01

 240	2.632727272727272e-04
	6.197771016114797e-01

 241	2.642727272727272e-04
	5.795376775643404e-01

 242	2.652727272727272e-04
	5.469484524650806e-01

 243	2.662727272727272e-04
	5.226023775372199e-01

 244	2.672727272727273e-04
	5.069424224051094e-01

 245	2.682727272727273e-04
	5.002535168293131e-01

 246	2.692727272727273e-04
	5.026573638458174e-01

 247	2.702727272727273e-04
	5.141102250064944e-01

 248	2.712727272727274e-04
	5.344037188528455e-01

 249	2.722727272727274e-04
	5.631686099092162e-01

 250	2.732727272727274e-04
	5.998815308771672e-01

 251	2.742727272727274e-04
	6.438744992526255e-01

 252	2.752727272727275e-04
	6.943470737832020e-01

 253	2.762727272727275e-04
	7.503809205323045e-01

 254	2.772727272727275e-04
	8.109565191720438e-01

 255	2.782727272727275e-04
	8.749717127902797e-01

 256	2.792727272727276e-04
	9.412617633310928e-01

