Title: ** sch_path: /home/tare/desktop/analog design/sar_tb.sch
Date: Fri Feb  9 22:35:21  2024
Plotname: Transient Analysis (linearized)
Flags: real
No. Variables: 2
No. Points: 129
Variables:
	0	time	time
	1	v(voutsh)	voltage
Values:
 0	1.330000000000000e-05
	1.078124709364602e+00

 1	1.430000000000000e-05
	9.570310193008084e-01

 2	1.530000000000000e-05
	8.359373293673142e-01

 3	1.630000000000000e-05
	7.265623837014199e-01

 4	1.730000000000000e-05
	6.328124302376128e-01

 5	1.830000000000000e-05
	5.624999651401444e-01

 6	1.930000000000000e-05
	5.156249884116699e-01

 7	2.030000000000000e-05
	4.999999961681341e-01

 8	2.130000000000000e-05
	5.117187403471608e-01

 9	2.230000000000000e-05
	5.546874690147785e-01

 10	2.330000000000000e-05
	6.210936860635666e-01

 11	2.430000000000000e-05
	7.148436397118657e-01

 12	2.530000000000001e-05
	8.242185852332955e-01

 13	2.630000000000001e-05
	9.414060402331975e-01

 14	2.730000000000001e-05
	1.057670657647910e+00

 15	2.830000000000001e-05
	1.183593420100780e+00

 16	2.930000000000001e-05
	1.289062117743768e+00

 17	3.030000000000001e-05
	1.378905823144456e+00

 18	3.130000000000001e-05
	1.445312040179648e+00

 19	3.230000000000001e-05
	1.488280768856477e+00

 20	3.330000000000000e-05
	1.496093264972869e+00

 21	3.430000000000000e-05
	1.480468272755444e+00

 22	3.530000000000000e-05
	1.429687047937065e+00

 23	3.629999999999999e-05
	1.355468334780904e+00

 24	3.729999999999999e-05
	1.261718381320259e+00

 25	3.829999999999999e-05
	1.152343435610317e+00

 26	3.929999999999999e-05
	1.031249732555593e+00

 27	4.029999999999998e-05
	9.062497945161739e-01

 28	4.129999999999998e-05
	7.929686007410672e-01

 29	4.229999999999998e-05
	6.874999030935469e-01

 30	4.329999999999998e-05
	6.015624457547331e-01

 31	4.429999999999997e-05
	5.390624767776396e-01

 32	4.529999999999997e-05
	5.039062442260271e-01

 33	4.629999999999997e-05
	4.999999961759575e-01

 34	4.729999999999996e-05
	5.234374633893403e-01

 35	4.829999999999996e-05
	5.781249573868421e-01

 36	4.929999999999996e-05
	6.562499185596709e-01

 37	5.029999999999996e-05
	7.578123681899791e-01

 38	5.129999999999995e-05
	8.710935619544190e-01

 39	5.229999999999995e-05
	9.921872650159483e-01

 40	5.329999999999995e-05
	1.113280955001814e+00

 41	5.429999999999994e-05
	1.226562158277908e+00

 42	5.529999999999994e-05
	1.328124598353398e+00

 43	5.629999999999994e-05
	1.410155807634655e+00

 44	5.729999999999994e-05
	1.464843280487566e+00

 45	5.829999999999993e-05
	1.496093236876116e+00

 46	5.929999999999993e-05
	1.492187016911959e+00

 47	6.029999999999993e-05
	1.464843280973682e+00

 48	6.129999999999993e-05
	1.406249559641708e+00

 49	6.229999999999993e-05
	1.320312102236044e+00

 50	6.329999999999993e-05
	1.218749652649101e+00

 51	6.429999999999992e-05
	1.101562197593922e+00

 52	6.529999999999992e-05
	9.804685076711904e-01

 53	6.629999999999992e-05
	8.593748177377581e-01

 54	6.729999999999991e-05
	7.460936240096425e-01

 55	6.829999999999991e-05
	6.484374224841922e-01

 56	6.929999999999991e-05
	5.742187093233753e-01

 57	7.029999999999991e-05
	5.234374845451960e-01

 58	7.129999999999990e-05
	4.999999961708299e-01

 59	7.229999999999990e-05
	5.078124923008944e-01

 60	7.329999999999990e-05
	5.429687248367583e-01

 61	7.429999999999990e-05
	6.054686938213837e-01

 62	7.529999999999989e-05
	6.953123992182990e-01

 63	7.629999999999989e-05
	8.007810968571044e-01

 64	7.729999999999989e-05
	9.179685518560721e-01

 65	7.829999999999988e-05
	1.039062241846422e+00

 66	7.929999999999988e-05
	1.160155931734185e+00

 67	8.029999999999988e-05
	1.269530877442445e+00

 68	8.129999999999988e-05
	1.363280830909898e+00

 69	8.229999999999987e-05
	1.433593296002532e+00

 70	8.329999999999987e-05
	1.480468272396415e+00

 71	8.429999999999987e-05
	1.496093264978480e+00

 72	8.529999999999986e-05
	1.484374520798849e+00

 73	8.629999999999986e-05
	1.441405792116649e+00

 74	8.729999999999986e-05
	1.374999575089306e+00

 75	8.829999999999986e-05
	1.281249621624837e+00

 76	8.929999999999985e-05
	1.175780923979866e+00

 77	9.029999999999985e-05
	1.054687220917678e+00

 78	9.129999999999985e-05
	9.335935309340427e-01

 79	9.229999999999984e-05
	8.124998410365947e-01

 80	9.329999999999984e-05
	7.070311451297112e-01

 81	9.429999999999984e-05
	6.171874380046027e-01

 82	9.529999999999984e-05
	5.507812209623169e-01

 83	9.629999999999983e-05
	5.078124922866289e-01

 84	9.729999999999983e-05
	4.999999961654167e-01

 85	9.829999999999983e-05
	5.195312364838385e-01

 86	9.929999999999983e-05
	5.664062127730949e-01

 87	1.002999999999998e-04
	6.406249263757900e-01

 88	1.012999999999998e-04
	7.343748798404546e-01

 89	1.022999999999998e-04
	8.476560735889566e-01

 90	1.032999999999998e-04
	9.648435285897409e-01

 91	1.042999999999998e-04
	1.089843456347404e+00

 92	1.052999999999998e-04
	1.203124660409464e+00

 93	1.062999999999998e-04
	1.308593358052047e+00

 94	1.072999999999998e-04
	1.394530815394925e+00

 95	1.082999999999998e-04
	1.457030784366243e+00

 96	1.092999999999998e-04
	1.492187016918026e+00

 97	1.102999999999998e-04
	1.496093264976946e+00

 98	1.112999999999998e-04
	1.472655776603852e+00

 99	1.122999999999998e-04
	1.417968303761816e+00

 100	1.132999999999998e-04
	1.339843342540023e+00

 101	1.142999999999998e-04
	1.242187141015232e+00

 102	1.152999999999998e-04
	1.128905947243743e+00

 103	1.162999999999998e-04
	1.007812243876082e+00

 104	1.172999999999998e-04
	8.828123061477322e-01

 105	1.182999999999998e-04
	7.695311123697737e-01

 106	1.192999999999998e-04
	6.679686628549427e-01

 107	1.202999999999998e-04
	5.859374535066467e-01

 108	1.212999999999998e-04
	5.312499806555119e-01

 109	1.222999999999998e-04
	4.999999961755261e-01

 110	1.232999999999998e-04
	5.039062442297239e-01

 111	1.242999999999998e-04
	5.351562287171118e-01

 112	1.252999999999998e-04
	5.937499496288481e-01

 113	1.262999999999998e-04
	6.757811583426108e-01

 114	1.272999999999998e-04
	7.773436085008919e-01

 115	1.282999999999998e-04
	8.945310634863298e-01

 116	1.292999999999998e-04
	1.015624753477685e+00

 117	1.302999999999998e-04
	1.136718443366596e+00

 118	1.312999999999997e-04
	1.246093389076484e+00

 119	1.322999999999997e-04
	1.347655838660495e+00

 120	1.332999999999997e-04
	1.421874550498768e+00

 121	1.342999999999997e-04
	1.472655776711385e+00

 122	1.352999999999997e-04
	1.496093264976388e+00

 123	1.362999999999997e-04
	1.488280779408977e+00

 124	1.372999999999997e-04
	1.453124536307416e+00

 125	1.382999999999997e-04
	1.390624567323512e+00

 126	1.392999999999997e-04
	1.300780861924998e+00

 127	1.402999999999997e-04
	1.195312164277439e+00

 128	1.412999999999997e-04
	1.078124709282238e+00

